 VARIABLES = "X" "Y" "Z"
 ZONE T="pass_39"
N=33151 E=66298
 ZONETYPE=FETriangle
 DATAPACKING=BLOCK
 VARLOCATION = ([1-3]=NODAL)
 DT=(DOUBLE DOUBLE DOUBLE)
 
-7.838399619164674E-02
-7.787314850684668E-02
-7.826925966928053E-02
-7.834139287311427E-02
-7.828962829929324E-02
-7.814797808671893E-02
-7.790147851443144E-02
-7.761184136858007E-02
-7.749480943873233E-02
-7.750045610728086E-02
-7.771453179455089E-02
-7.803492197432058E-02
-7.830541971905421E-02
-7.826559765757832E-02
-7.878594611457526E-02
-7.855322564459238E-02
-7.814452547159458E-02
-7.763236563027588E-02
-7.697939037804569E-02
-7.615452005166744E-02
-7.652390451929877E-02
-7.770180838856520E-02
-7.765505120849943E-02
-7.794911057974009E-02
-7.821308768152077E-02
-7.831423888825881E-02
-7.900619518418113E-02
-7.821534763280173E-02
-7.821289092874169E-02
-7.815123412001200E-02
-7.816815233329158E-02
-7.812498652808067E-02
-7.792937979826360E-02
-7.756384969377572E-02
-7.750803082571461E-02
-7.781721098547616E-02
-7.799149505966546E-02
-7.801961288934084E-02
-7.794508469875611E-02
-7.812123039617047E-02
-7.845352911699088E-02
-7.871568293391175E-02
-7.781714770876975E-02
-7.820029959207277E-02
-7.726429776472049E-02
-7.750792217696646E-02
-7.625814784538441E-02
-7.674996478159359E-02
-7.752375885632444E-02
-7.681628880524098E-02
-7.744601010664873E-02
-7.789072990293489E-02
-7.849828524308940E-02
-7.820906639961207E-02
-7.768748160721164E-02
-7.797666284721548E-02
-7.798675897827755E-02
-7.787007275070004E-02
-7.750709369693146E-02
-7.715343151226867E-02
-7.703166002116063E-02
-7.673001734488998E-02
-7.785645674850744E-02
-7.760338254593742E-02
-7.741328013850152E-02
-8.000000000000000E-02
-8.000000000000000E-02
-7.962036975806125E-02
-8.000000000000000E-02
-7.947999013413526E-02
-7.983851228167141E-02
-7.977431664883433E-02
-7.982503101312145E-02
-7.982423896095230E-02
-7.999062094006459E-02
-7.960474215965316E-02
-7.943779071138470E-02
-7.923312916622519E-02
-7.968608245952295E-02
-7.934343976118741E-02
-7.886051241314068E-02
-7.997596738990702E-02
-7.978325410568139E-02
-7.997717749732557E-02
-7.973158880663248E-02
-7.990361798012474E-02
-8.000000000000000E-02
-7.989762432535306E-02
-7.952239479916220E-02
-8.000000000000000E-02
-8.000000000000000E-02
-8.000000000000000E-02
-8.000000000000000E-02
-8.000000000000000E-02
-8.000000000000000E-02
-8.000000000000000E-02
-7.983294988570588E-02
-8.000000000000000E-02
-8.000000000000000E-02
-8.000000000000000E-02
-8.000000000000000E-02
-7.956229610379086E-02
-8.000000000000000E-02
-8.000000000000000E-02
-8.000000000000000E-02
-8.000000000000000E-02
-7.952587211307922E-02
-7.962976817793711E-02
-7.992280150357180E-02
-8.000000000000000E-02
-8.000000000000000E-02
-8.000000000000000E-02
-7.966549388604827E-02
-8.000000000000000E-02
-8.000000000000000E-02
-8.000000000000000E-02
-8.000000000000000E-02
-8.000000000000000E-02
-8.000000000000000E-02
-8.000000000000000E-02
-8.000000000000000E-02
-8.000000000000000E-02
-7.973369145527599E-02
-8.000000000000000E-02
-8.000000000000000E-02
-8.000000000000000E-02
-8.000000000000000E-02
-8.000000000000000E-02
-7.976157136389984E-02
-8.000000000000000E-02
-8.000000000000000E-02
-8.000000000000000E-02
-8.000000000000000E-02
-8.000000000000000E-02
-8.000000000000000E-02
-8.000000000000000E-02
-8.000000000000000E-02
-8.000000000000000E-02
-7.975522303614682E-02
-8.000000000000000E-02
-8.000000000000000E-02
-8.000000000000000E-02
-8.000000000000000E-02
-8.000000000000000E-02
-8.000000000000000E-02
-8.000000000000000E-02
-8.000000000000000E-02
-7.975195995856028E-02
-8.000000000000000E-02
-8.000000000000000E-02
-8.000000000000000E-02
-8.000000000000000E-02
-8.000000000000000E-02
-8.000000000000000E-02
-8.000000000000000E-02
-8.000000000000000E-02
-8.000000000000000E-02
-8.000000000000000E-02
-7.978832891232542E-02
-8.000000000000000E-02
-8.000000000000000E-02
-8.000000000000000E-02
-8.000000000000000E-02
-8.000000000000000E-02
-8.000000000000000E-02
-8.000000000000000E-02
-7.983282745770874E-02
-8.000000000000000E-02
-8.000000000000000E-02
-8.000000000000000E-02
-8.000000000000000E-02
-8.000000000000000E-02
-8.000000000000000E-02
-8.000000000000000E-02
-8.000000000000000E-02
-8.000000000000000E-02
-8.000000000000000E-02
-8.000000000000000E-02
-8.000000000000000E-02
-8.000000000000000E-02
-7.984887810978621E-02
-8.000000000000000E-02
-8.000000000000000E-02
-8.000000000000000E-02
-7.970949944612603E-02
-8.000000000000000E-02
-8.000000000000000E-02
-8.000000000000000E-02
-8.000000000000000E-02
-8.000000000000000E-02
-8.000000000000000E-02
-8.000000000000000E-02
-8.000000000000000E-02
-8.000000000000000E-02
-8.000000000000000E-02
-8.000000000000000E-02
-8.000000000000000E-02
-8.000000000000000E-02
-8.000000000000000E-02
-7.981166574333604E-02
-8.000000000000000E-02
-8.000000000000000E-02
-8.000000000000000E-02
-8.000000000000000E-02
-8.000000000000000E-02
-8.000000000000000E-02
-8.000000000000000E-02
-8.000000000000000E-02
-8.000000000000000E-02
-7.996536072307894E-02
-8.000000000000000E-02
-8.000000000000000E-02
-8.000000000000000E-02
-8.000000000000000E-02
-8.000000000000000E-02
-8.000000000000000E-02
-8.000000000000000E-02
-8.000000000000000E-02
-8.000000000000000E-02
-8.000000000000000E-02
-8.000000000000000E-02
-7.994660593774422E-02
-8.000000000000000E-02
-8.000000000000000E-02
-8.000000000000000E-02
-8.000000000000000E-02
-8.000000000000000E-02
-7.992856605688087E-02
-8.000000000000000E-02
-7.985639254705121E-02
-8.000000000000000E-02
-8.000000000000000E-02
-8.000000000000000E-02
-8.000000000000000E-02
-8.000000000000000E-02
-8.000000000000000E-02
-8.000000000000000E-02
-8.000000000000000E-02
-8.000000000000000E-02
-8.000000000000000E-02
-8.000000000000000E-02
-8.000000000000000E-02
-7.962968249773590E-02
-8.000000000000000E-02
-8.000000000000000E-02
-8.000000000000000E-02
-8.000000000000000E-02
-8.000000000000000E-02
-8.000000000000000E-02
-7.917328434528800E-02
-8.000000000000000E-02
-8.000000000000000E-02
-8.000000000000000E-02
-8.000000000000000E-02
-8.000000000000000E-02
-8.000000000000000E-02
-8.000000000000000E-02
-8.000000000000000E-02
-8.000000000000000E-02
-8.000000000000000E-02
-8.000000000000000E-02
-7.985596152981839E-02
-7.834165516132788E-02
-8.000000000000000E-02
-8.000000000000000E-02
-8.000000000000000E-02
-8.000000000000000E-02
-8.000000000000000E-02
-8.000000000000000E-02
-7.918431917443636E-02
-8.000000000000000E-02
-7.909313582188043E-02
-8.000000000000000E-02
-8.000000000000000E-02
-8.000000000000000E-02
-8.000000000000000E-02
-8.000000000000000E-02
-8.000000000000000E-02
-8.000000000000000E-02
-8.000000000000000E-02
-8.000000000000000E-02
-8.000000000000000E-02
-8.000000000000000E-02
-8.000000000000000E-02
-7.954059271399755E-02
-7.952907236921070E-02
-8.000000000000000E-02
-8.000000000000000E-02
-8.000000000000000E-02
-8.000000000000000E-02
-8.000000000000000E-02
-7.972133300430026E-02
-8.000000000000000E-02
-8.000000000000000E-02
-8.000000000000000E-02
-8.000000000000000E-02
-8.000000000000000E-02
-8.000000000000000E-02
-8.000000000000000E-02
-8.000000000000000E-02
-8.000000000000000E-02
-8.000000000000000E-02
-8.000000000000000E-02
-8.000000000000000E-02
-8.000000000000000E-02
-8.000000000000000E-02
-8.000000000000000E-02
-8.000000000000000E-02
-8.000000000000000E-02
-7.982684809638628E-02
-8.000000000000000E-02
-8.000000000000000E-02
-8.000000000000000E-02
-8.000000000000000E-02
-7.939177908489792E-02
-7.998235564509786E-02
-8.000000000000000E-02
-8.000000000000000E-02
-8.000000000000000E-02
-8.000000000000000E-02
-8.000000000000000E-02
-8.000000000000000E-02
-8.000000000000000E-02
-8.000000000000000E-02
-8.000000000000000E-02
-8.000000000000000E-02
-7.977843908683172E-02
-7.985899740785890E-02
-8.000000000000000E-02
-8.000000000000000E-02
-8.000000000000000E-02
-8.000000000000000E-02
-8.000000000000000E-02
-8.000000000000000E-02
-8.000000000000000E-02
-8.000000000000000E-02
-8.000000000000000E-02
-8.000000000000000E-02
-7.975770812307312E-02
-8.000000000000000E-02
-8.000000000000000E-02
-8.000000000000000E-02
-8.000000000000000E-02
-8.000000000000000E-02
-8.000000000000000E-02
-8.000000000000000E-02
-8.000000000000000E-02
-8.000000000000000E-02
-8.000000000000000E-02
-8.000000000000000E-02
-8.000000000000000E-02
-8.000000000000000E-02
-7.985878672380275E-02
-8.000000000000000E-02
-8.000000000000000E-02
-8.000000000000000E-02
-8.000000000000000E-02
-8.000000000000000E-02
-7.990095444263340E-02
-8.000000000000000E-02
-7.954512159891637E-02
-8.000000000000000E-02
-8.000000000000000E-02
-8.000000000000000E-02
-8.000000000000000E-02
-8.000000000000000E-02
-8.000000000000000E-02
-8.000000000000000E-02
-8.000000000000000E-02
-8.000000000000000E-02
-8.000000000000000E-02
-8.000000000000000E-02
-8.000000000000000E-02
-7.989986314729586E-02
-8.000000000000000E-02
-8.000000000000000E-02
-8.000000000000000E-02
-8.000000000000000E-02
-8.000000000000000E-02
-7.986621529867866E-02
-8.000000000000000E-02
-8.000000000000000E-02
-8.000000000000000E-02
-8.000000000000000E-02
-8.000000000000000E-02
-8.000000000000000E-02
-8.000000000000000E-02
-8.000000000000000E-02
-8.000000000000000E-02
-8.000000000000000E-02
-8.000000000000000E-02
-7.979480629842241E-02
-8.000000000000000E-02
-8.000000000000000E-02
-8.000000000000000E-02
-7.968165914102182E-02
 1.178869015606574E+00
 1.179201342461894E+00
 1.179174633610186E+00
 1.179029694240219E+00
 1.178810859966614E+00
 1.178619162742907E+00
 1.178419585180195E+00
 1.177901840011710E+00
 1.178513026801210E+00
 1.177932948544993E+00
 1.177197031823388E+00
 1.177984035111742E+00
 1.177554834395572E+00
 1.176927572004054E+00
 1.177804870999180E+00
 1.177573630266330E+00
 1.176970801807314E+00
 1.177512405685496E+00
 1.176653180459814E+00
 1.177183183774194E+00
 1.176417502559230E+00
 1.177925849900609E+00
 1.176986454896429E+00
 1.177399340323566E+00
 1.177831715106773E+00
 1.178444744914140E+00
 1.178997299521269E+00
 1.178066592613781E+00
 1.178539329133121E+00
 1.177999805843035E+00
 1.178310165766195E+00
 1.178305567242252E+00
 1.178191837147296E+00
 1.177859797857514E+00
 1.177142435251057E+00
 1.177315949661244E+00
 1.177329494819869E+00
 1.177459940275737E+00
 1.177783312604150E+00
 1.178068869581108E+00
 1.178178179369179E+00
 1.178030931998621E+00
 1.177770821478763E+00
 1.177367134254767E+00
 1.176798801140851E+00
 1.175985836736285E+00
 1.176286715200104E+00
 1.176938069496468E+00
 1.177146681001830E+00
 1.178301768909491E+00
 1.177998528632351E+00
 1.178512769359999E+00
 1.178445723391511E+00
 1.178988507485196E+00
 1.178856907391339E+00
 1.178677292465453E+00
 1.178533093232395E+00
 1.178447130071679E+00
 1.178275615716747E+00
 1.178078436280690E+00
 1.177702778532831E+00
 1.177374087633058E+00
 1.177261912682991E+00
 1.177069349424566E+00
 1.177021617104999E+00
 1.176760621351466E+00
 1.176495789088304E+00
 1.177404834534693E+00
 1.177142514704991E+00
 1.176974676238118E+00
 1.176370806072153E+00
 1.175614154943027E+00
 1.175461577368887E+00
 1.176353243332986E+00
 1.176730418150213E+00
 1.177939803800042E+00
 1.177414694573032E+00
 1.177416902838163E+00
 1.179071858658179E+00
 1.178942993575282E+00
 1.179002849707321E+00
 1.179017970271874E+00
 1.178886665042738E+00
 1.178803304635211E+00
 1.178766647154540E+00
 1.178629676690179E+00
 1.178308799981629E+00
 1.178068676795301E+00
 1.178008753968212E+00
 1.178008663613317E+00
 1.178009555481105E+00
 1.177958428812268E+00
 1.177774994414158E+00
 1.177211350010362E+00
 1.177665923673198E+00
 1.177691576763496E+00
 1.177445186743514E+00
 1.176959318108461E+00
 1.176133896289216E+00
 1.177196372365552E+00
 1.178154244476874E+00
 1.178542897869805E+00
 1.178416949755911E+00
 1.178105084555530E+00
 1.179018030237351E+00
 1.178423637234800E+00
 1.177911105884367E+00
 1.178152041972001E+00
 1.178110853683283E+00
 1.177980930864579E+00
 1.178370010283374E+00
 1.177409331551509E+00
 1.177243248314101E+00
 1.176753220398416E+00
 1.177082795461173E+00
 1.177191503179313E+00
 1.177238361156435E+00
 1.177381040531765E+00
 1.177319132618181E+00
 1.177364053980644E+00
 1.177161309823529E+00
 1.177013142823837E+00
 1.176891168715433E+00
 1.176638550506953E+00
 1.176131481832754E+00
 1.177102032698617E+00
 1.177974694245047E+00
 1.178409255085557E+00
 1.178444639777211E+00
 1.178136801357851E+00
 1.180000000000000E+00
 1.180000000000000E+00
 1.180000000000000E+00
 1.180000000000000E+00
 1.180000000000000E+00
 1.180000000000000E+00
 1.180000000000000E+00
 1.180000000000000E+00
 1.180000000000000E+00
 1.180000000000000E+00
 1.180000000000000E+00
 1.180000000000000E+00
 1.180000000000000E+00
 1.180000000000000E+00
 1.180000000000000E+00
 1.180000000000000E+00
 1.180000000000000E+00
 1.180000000000000E+00
 1.180000000000000E+00
 1.180000000000000E+00
 1.180000000000000E+00
 1.180000000000000E+00
 1.180000000000000E+00
 1.180000000000000E+00
 1.180000000000000E+00
 1.180000000000000E+00
 1.180000000000000E+00
 1.180000000000000E+00
 1.180000000000000E+00
 1.180000000000000E+00
 1.180000000000000E+00
 1.180000000000000E+00
 1.180000000000000E+00
 1.180000000000000E+00
 1.180000000000000E+00
 1.180000000000000E+00
 1.180000000000000E+00
 1.180000000000000E+00
 1.179648309873345E+00
 1.179017438960358E+00
 1.179143442239628E+00
 1.179750078296365E+00
 1.179579587800938E+00
 1.179826056688748E+00
 1.180000000000000E+00
 1.180000000000000E+00
 1.180000000000000E+00
 1.180000000000000E+00
 1.180000000000000E+00
 1.180000000000000E+00
 1.180000000000000E+00
 1.180000000000000E+00
 1.180000000000000E+00
 1.179536521605258E+00
 1.180000000000000E+00
 1.180000000000000E+00
 1.180000000000000E+00
 1.180000000000000E+00
 1.180000000000000E+00
 1.180000000000000E+00
 1.180000000000000E+00
 1.180000000000000E+00
 1.180000000000000E+00
 1.180000000000000E+00
 1.180000000000000E+00
 1.180000000000000E+00
 1.180000000000000E+00
 1.180000000000000E+00
 1.179686929127953E+00
 1.180000000000000E+00
 1.180000000000000E+00
 1.180000000000000E+00
 1.180000000000000E+00
 1.180000000000000E+00
 1.180000000000000E+00
 1.180000000000000E+00
 1.180000000000000E+00
 1.180000000000000E+00
 1.180000000000000E+00
 1.180000000000000E+00
 1.180000000000000E+00
 1.180000000000000E+00
 1.180000000000000E+00
 1.180000000000000E+00
 1.180000000000000E+00
 1.180000000000000E+00
 1.179981815501792E+00
 1.180000000000000E+00
 1.179656540159527E+00
 1.180000000000000E+00
 1.180000000000000E+00
 1.180000000000000E+00
 1.180000000000000E+00
 1.180000000000000E+00
 1.180000000000000E+00
 1.180000000000000E+00
 1.180000000000000E+00
 1.180000000000000E+00
 1.180000000000000E+00
 1.180000000000000E+00
 1.180000000000000E+00
 1.180000000000000E+00
 1.180000000000000E+00
 1.180000000000000E+00
 1.180000000000000E+00
 1.180000000000000E+00
 1.178996339954536E+00
 1.179944129385941E+00
 1.180000000000000E+00
 1.180000000000000E+00
 1.180000000000000E+00
 1.180000000000000E+00
 1.180000000000000E+00
 1.180000000000000E+00
 1.180000000000000E+00
 1.180000000000000E+00
 1.180000000000000E+00
 1.180000000000000E+00
 1.180000000000000E+00
 1.180000000000000E+00
 1.180000000000000E+00
 1.180000000000000E+00
 1.180000000000000E+00
 1.180000000000000E+00
 1.180000000000000E+00
 1.180000000000000E+00
 1.178805528987414E+00
 1.179999592317525E+00
 1.180000000000000E+00
 1.180000000000000E+00
 1.180000000000000E+00
 1.180000000000000E+00
 1.179109430130946E+00
 1.180000000000000E+00
 1.180000000000000E+00
 1.180000000000000E+00
 1.180000000000000E+00
 1.180000000000000E+00
 1.180000000000000E+00
 1.180000000000000E+00
 1.180000000000000E+00
 1.180000000000000E+00
 1.180000000000000E+00
 1.180000000000000E+00
 1.178841270389779E+00
 1.179854910234182E+00
 1.180000000000000E+00
 1.180000000000000E+00
 1.180000000000000E+00
 1.180000000000000E+00
 1.180000000000000E+00
 1.180000000000000E+00
 1.180000000000000E+00
 1.180000000000000E+00
 1.179512863522375E+00
 1.180000000000000E+00
 1.180000000000000E+00
 1.180000000000000E+00
 1.180000000000000E+00
 1.180000000000000E+00
 1.180000000000000E+00
 1.180000000000000E+00
 1.180000000000000E+00
 1.180000000000000E+00
 1.180000000000000E+00
 1.180000000000000E+00
 1.180000000000000E+00
 1.180000000000000E+00
 1.180000000000000E+00
 1.178988606743944E+00
 1.179897407661135E+00
 1.180000000000000E+00
 1.180000000000000E+00
 1.180000000000000E+00
 1.180000000000000E+00
 1.180000000000000E+00
 1.180000000000000E+00
 1.179403007118885E+00
 1.180000000000000E+00
 1.180000000000000E+00
 1.180000000000000E+00
 1.180000000000000E+00
 1.180000000000000E+00
 1.180000000000000E+00
 1.180000000000000E+00
 1.180000000000000E+00
 1.180000000000000E+00
 1.180000000000000E+00
 1.180000000000000E+00
 1.180000000000000E+00
 1.180000000000000E+00
 1.180000000000000E+00
 1.180000000000000E+00
 1.180000000000000E+00
 1.180000000000000E+00
 1.180000000000000E+00
 1.180000000000000E+00
 1.180000000000000E+00
 1.179161436877884E+00
 1.179998628091366E+00
 1.180000000000000E+00
 1.180000000000000E+00
 1.180000000000000E+00
 1.180000000000000E+00
 1.180000000000000E+00
 1.180000000000000E+00
 1.180000000000000E+00
 1.180000000000000E+00
 1.180000000000000E+00
 1.178789988917954E+00
 1.179888328483260E+00
 1.180000000000000E+00
 1.180000000000000E+00
 1.180000000000000E+00
 1.180000000000000E+00
 1.180000000000000E+00
 1.180000000000000E+00
 1.180000000000000E+00
 1.180000000000000E+00
 1.180000000000000E+00
 1.180000000000000E+00
 1.180000000000000E+00
 1.180000000000000E+00
 1.180000000000000E+00
 1.180000000000000E+00
 1.180000000000000E+00
 1.179194937951807E+00
 1.180000000000000E+00
 1.180000000000000E+00
 1.180000000000000E+00
 1.180000000000000E+00
 1.180000000000000E+00
 1.180000000000000E+00
 1.180000000000000E+00
 1.180000000000000E+00
 1.180000000000000E+00
 1.179540776930874E+00
 1.179941691040337E+00
 1.180000000000000E+00
 1.180000000000000E+00
 1.180000000000000E+00
 1.180000000000000E+00
 1.180000000000000E+00
 1.180000000000000E+00
 1.180000000000000E+00
 1.178706330812430E+00
 1.179921568899106E+00
 1.180000000000000E+00
 1.180000000000000E+00
 1.180000000000000E+00
 1.180000000000000E+00
 1.180000000000000E+00
 1.180000000000000E+00
 1.180000000000000E+00
 1.180000000000000E+00
 1.180000000000000E+00
 1.180000000000000E+00
 1.180000000000000E+00
 1.180000000000000E+00
 1.180000000000000E+00
 1.180000000000000E+00
 1.180000000000000E+00
 1.180000000000000E+00
 1.179105710082313E+00
 1.180000000000000E+00
 1.180000000000000E+00
 1.180000000000000E+00
 1.180000000000000E+00
 1.180000000000000E+00
 1.180000000000000E+00
 1.180000000000000E+00
 1.180000000000000E+00
 1.180000000000000E+00
 1.180000000000000E+00
 1.178704779522971E+00
 1.179940441890804E+00
 1.180000000000000E+00
 1.180000000000000E+00
 1.180000000000000E+00
 1.180000000000000E+00
 1.180000000000000E+00
 1.180000000000000E+00
 1.180000000000000E+00
 1.180000000000000E+00
 1.180000000000000E+00
 1.180000000000000E+00
 1.180000000000000E+00
 1.180000000000000E+00
 1.180000000000000E+00
 1.180000000000000E+00
 1.180000000000000E+00
 1.180000000000000E+00
 1.180000000000000E+00
 1.180000000000000E+00
 1.180000000000000E+00
 1.180000000000000E+00
 1.180000000000000E+00
 1.180000000000000E+00
 1.180000000000000E+00
 1.179396501791022E+00
 1.180000000000000E+00
 1.180000000000000E+00
 1.180000000000000E+00
 1.180000000000000E+00
 1.180000000000000E+00
 1.180000000000000E+00
 1.180000000000000E+00
 1.180000000000000E+00
 1.180000000000000E+00
 1.180000000000000E+00
 1.180000000000000E+00
 1.180000000000000E+00
 1.179830234517738E+00
 1.180000000000000E+00
 1.180000000000000E+00
 1.180000000000000E+00
 1.180000000000000E+00
 1.180000000000000E+00
 1.180000000000000E+00
 1.180000000000000E+00
 1.180000000000000E+00
 1.180000000000000E+00
 1.180000000000000E+00
 1.180000000000000E+00
 1.180000000000000E+00
 1.180000000000000E+00
 1.180000000000000E+00
 1.180000000000000E+00
 1.180000000000000E+00
 1.180000000000000E+00
 1.179665347298135E+00
 1.180000000000000E+00
 1.180000000000000E+00
 1.180000000000000E+00
 1.180000000000000E+00
 1.180000000000000E+00
 1.180000000000000E+00
 1.180000000000000E+00
 1.180000000000000E+00
 1.180000000000000E+00
 1.180000000000000E+00
 1.180000000000000E+00
 1.180000000000000E+00
 1.180000000000000E+00
 1.180000000000000E+00
 1.180000000000000E+00
 1.180000000000000E+00
 1.179827129105299E+00
 1.180000000000000E+00
 1.180000000000000E+00
 1.180000000000000E+00
 1.180000000000000E+00
 1.180000000000000E+00
 1.180000000000000E+00
 1.180000000000000E+00
 1.180000000000000E+00
 1.180000000000000E+00
 1.180000000000000E+00
 1.180000000000000E+00
 1.180000000000000E+00
 1.180000000000000E+00
 1.180000000000000E+00
 1.180000000000000E+00
 1.180000000000000E+00
 1.180000000000000E+00
 1.180000000000000E+00
 1.180000000000000E+00
 1.180000000000000E+00
 1.180000000000000E+00
 1.180000000000000E+00
 1.180000000000000E+00
 1.180000000000000E+00
 1.180000000000000E+00
 1.180000000000000E+00
 1.179838858236821E+00
 1.180000000000000E+00
 1.180000000000000E+00
 1.180000000000000E+00
 1.180000000000000E+00
 1.180000000000000E+00
 1.180000000000000E+00
 1.180000000000000E+00
 1.180000000000000E+00
 1.179960687133162E+00
 1.180000000000000E+00
 1.180000000000000E+00
 1.180000000000000E+00
 1.180000000000000E+00
 1.180000000000000E+00
 1.180000000000000E+00
 1.180000000000000E+00
 1.180000000000000E+00
 1.180000000000000E+00
 1.180000000000000E+00
 1.180000000000000E+00
 1.180000000000000E+00
 1.180000000000000E+00
 1.180000000000000E+00
 1.180000000000000E+00
 1.180000000000000E+00
 1.180000000000000E+00
 1.179088901166188E+00
 1.179735234964197E+00
 1.179994493891285E+00
 1.180000000000000E+00
 1.180000000000000E+00
 1.180000000000000E+00
 1.180000000000000E+00
 1.180000000000000E+00
 1.180000000000000E+00
 1.180000000000000E+00
 1.180000000000000E+00
 1.180000000000000E+00
 1.180000000000000E+00
 1.180000000000000E+00
 1.180000000000000E+00
 1.180000000000000E+00
 1.180000000000000E+00
 1.180000000000000E+00
 1.180000000000000E+00
 1.180000000000000E+00
 1.180000000000000E+00
 1.180000000000000E+00
 1.179996372619996E+00
 1.180000000000000E+00
 1.180000000000000E+00
 1.180000000000000E+00
 1.180000000000000E+00
 1.180000000000000E+00
 1.180000000000000E+00
 1.180000000000000E+00
 1.180000000000000E+00
 1.180000000000000E+00
 1.180000000000000E+00
 1.180000000000000E+00
 1.180000000000000E+00
 1.180000000000000E+00
 1.180000000000000E+00
 1.180000000000000E+00
 1.180000000000000E+00
 1.180000000000000E+00
 1.180000000000000E+00
 1.180000000000000E+00
 1.180000000000000E+00
 1.180000000000000E+00
 1.180000000000000E+00
 1.180000000000000E+00
 1.180000000000000E+00
 1.180000000000000E+00
 1.180000000000000E+00
 1.180000000000000E+00
 1.180000000000000E+00
 1.180000000000000E+00
 1.180000000000000E+00
 1.180000000000000E+00
 1.180000000000000E+00
 1.180000000000000E+00
 1.180000000000000E+00
 1.179880088804816E+00
 1.180000000000000E+00
 1.180000000000000E+00
 1.180000000000000E+00
 1.180000000000000E+00
 1.180000000000000E+00
 1.180000000000000E+00
 1.180000000000000E+00
 1.180000000000000E+00
 1.180000000000000E+00
 1.180000000000000E+00
 1.180000000000000E+00
 1.180000000000000E+00
 1.180000000000000E+00
 1.180000000000000E+00
 1.180000000000000E+00
 1.180000000000000E+00
 1.180000000000000E+00
 1.179949647262399E+00
 1.180000000000000E+00
 1.180000000000000E+00
 1.180000000000000E+00
 1.180000000000000E+00
 1.180000000000000E+00
 1.180000000000000E+00
 1.180000000000000E+00
 1.180000000000000E+00
 1.180000000000000E+00
 1.180000000000000E+00
 1.180000000000000E+00
 1.180000000000000E+00
 1.180000000000000E+00
 1.180000000000000E+00
 1.180000000000000E+00
 1.180000000000000E+00
 1.180000000000000E+00
 1.180000000000000E+00
 1.180000000000000E+00
 1.180000000000000E+00
 1.180000000000000E+00
 1.180000000000000E+00
 1.180000000000000E+00
 1.179974491422357E+00
 1.180000000000000E+00
 1.180000000000000E+00
 1.180000000000000E+00
 1.180000000000000E+00
 1.180000000000000E+00
 1.180000000000000E+00
 1.180000000000000E+00
 1.180000000000000E+00
 1.180000000000000E+00
 1.179980420264206E+00
 1.180000000000000E+00
 1.180000000000000E+00
 1.180000000000000E+00
 1.180000000000000E+00
 1.180000000000000E+00
 1.180000000000000E+00
 1.180000000000000E+00
 1.180000000000000E+00
 1.180000000000000E+00
 1.180000000000000E+00
 1.180000000000000E+00
 1.180000000000000E+00
 1.180000000000000E+00
 1.180000000000000E+00
 1.180000000000000E+00
 1.180000000000000E+00
 1.180000000000000E+00
 1.180000000000000E+00
 1.180000000000000E+00
 1.180000000000000E+00
 1.180000000000000E+00
 1.180000000000000E+00
 1.180000000000000E+00
 1.180000000000000E+00
 1.180000000000000E+00
 1.180000000000000E+00
 1.180000000000000E+00
 1.180000000000000E+00
 1.180000000000000E+00
 1.180000000000000E+00
 1.180000000000000E+00
 1.180000000000000E+00
 1.180000000000000E+00
 1.180000000000000E+00
 1.180000000000000E+00
 1.180000000000000E+00
 1.180000000000000E+00
 1.180000000000000E+00
 1.180000000000000E+00
 1.180000000000000E+00
 1.180000000000000E+00
 1.179741794974844E+00
 1.180000000000000E+00
 1.180000000000000E+00
 1.180000000000000E+00
 1.180000000000000E+00
 1.180000000000000E+00
 1.180000000000000E+00
 1.180000000000000E+00
 1.180000000000000E+00
 1.180000000000000E+00
 1.180000000000000E+00
 1.178868249797858E+00
 1.179585126592272E+00
 1.180000000000000E+00
 1.180000000000000E+00
 1.180000000000000E+00
 1.180000000000000E+00
 1.180000000000000E+00
 1.180000000000000E+00
 1.180000000000000E+00
 1.180000000000000E+00
 1.180000000000000E+00
 1.180000000000000E+00
 1.180000000000000E+00
 1.180000000000000E+00
 1.180000000000000E+00
 1.180000000000000E+00
 1.180000000000000E+00
 1.180000000000000E+00
 1.180000000000000E+00
 1.180000000000000E+00
 1.180000000000000E+00
 1.179802865184357E+00
 1.180000000000000E+00
 1.180000000000000E+00
 1.180000000000000E+00
 1.180000000000000E+00
 1.180000000000000E+00
 1.180000000000000E+00
 1.180000000000000E+00
 1.180000000000000E+00
 1.180000000000000E+00
 1.180000000000000E+00
 1.180000000000000E+00
 1.180000000000000E+00
 1.180000000000000E+00
 1.180000000000000E+00
 1.180000000000000E+00
 1.179844790361762E+00
 1.180000000000000E+00
 1.180000000000000E+00
 1.180000000000000E+00
 1.180000000000000E+00
 1.180000000000000E+00
 1.180000000000000E+00
 1.180000000000000E+00
 1.180000000000000E+00
 1.180000000000000E+00
 1.180000000000000E+00
 1.180000000000000E+00
 1.180000000000000E+00
 1.180000000000000E+00
 1.180000000000000E+00
 1.180000000000000E+00
 1.180000000000000E+00
 1.180000000000000E+00
 1.180000000000000E+00
 1.180000000000000E+00
 1.180000000000000E+00
 1.180000000000000E+00
 1.180000000000000E+00
 1.180000000000000E+00
 1.180000000000000E+00
 1.180000000000000E+00
 1.180000000000000E+00
 1.180000000000000E+00
 1.179872773232417E+00
 1.180000000000000E+00
 1.180000000000000E+00
 1.180000000000000E+00
 1.180000000000000E+00
 1.180000000000000E+00
 1.180000000000000E+00
 1.180000000000000E+00
 1.180000000000000E+00
 1.180000000000000E+00
 1.180000000000000E+00
 1.179886586303744E+00
 1.180000000000000E+00
 1.180000000000000E+00
 1.180000000000000E+00
 1.180000000000000E+00
 1.179391532728185E+00
 1.179761340895119E+00
 1.179958429742345E+00
 1.180000000000000E+00
 1.180000000000000E+00
 1.180000000000000E+00
 1.180000000000000E+00
 1.180000000000000E+00
 1.180000000000000E+00
 1.180000000000000E+00
 1.180000000000000E+00
 1.180000000000000E+00
 1.180000000000000E+00
 1.180000000000000E+00
 1.180000000000000E+00
 1.180000000000000E+00
 1.180000000000000E+00
 1.180000000000000E+00
 1.180000000000000E+00
 1.180000000000000E+00
 1.180000000000000E+00
 1.180000000000000E+00
 1.180000000000000E+00
 1.180000000000000E+00
 1.180000000000000E+00
 1.180000000000000E+00
 1.180000000000000E+00
 1.180000000000000E+00
 1.180000000000000E+00
 1.180000000000000E+00
 1.180000000000000E+00
 1.179867103937225E+00
 1.180000000000000E+00
 1.180000000000000E+00
 1.180000000000000E+00
 1.180000000000000E+00
 1.180000000000000E+00
 1.180000000000000E+00
 1.180000000000000E+00
 1.180000000000000E+00
 1.180000000000000E+00
 1.180000000000000E+00
 1.180000000000000E+00
 1.180000000000000E+00
 1.179851115401115E+00
 1.180000000000000E+00
 1.180000000000000E+00
 1.180000000000000E+00
 1.180000000000000E+00
 1.180000000000000E+00
 1.180000000000000E+00
 1.180000000000000E+00
 1.180000000000000E+00
 1.180000000000000E+00
 1.180000000000000E+00
 1.180000000000000E+00
 1.180000000000000E+00
 1.179851303202698E+00
 1.180000000000000E+00
 1.180000000000000E+00
 1.180000000000000E+00
 1.180000000000000E+00
 1.180000000000000E+00
 1.180000000000000E+00
 1.180000000000000E+00
 1.180000000000000E+00
 1.180000000000000E+00
 1.180000000000000E+00
 1.180000000000000E+00
 1.180000000000000E+00
 1.180000000000000E+00
 1.180000000000000E+00
 1.180000000000000E+00
 1.180000000000000E+00
 1.179740646550686E+00
 1.180000000000000E+00
 1.180000000000000E+00
 1.180000000000000E+00
 1.180000000000000E+00
 1.180000000000000E+00
 1.180000000000000E+00
 1.180000000000000E+00
 1.180000000000000E+00
 1.180000000000000E+00
 1.180000000000000E+00
 1.180000000000000E+00
 1.180000000000000E+00
 1.180000000000000E+00
 1.180000000000000E+00
 1.180000000000000E+00
 1.179538171494834E+00
 1.180000000000000E+00
 1.180000000000000E+00
 1.180000000000000E+00
 1.180000000000000E+00
 1.179741610106832E+00
 1.180000000000000E+00
 1.180000000000000E+00
 1.180000000000000E+00
 1.180000000000000E+00
 1.180000000000000E+00
 1.179960704688452E+00
 1.180000000000000E+00
 1.180000000000000E+00
 1.180000000000000E+00
 1.180000000000000E+00
 1.180000000000000E+00
 1.180000000000000E+00
 1.180000000000000E+00
 1.180000000000000E+00
 1.180000000000000E+00
 1.180000000000000E+00
 1.180000000000000E+00
 1.180000000000000E+00
 1.180000000000000E+00
 1.180000000000000E+00
 1.180000000000000E+00
 1.180000000000000E+00
 1.179242143015225E+00
 1.180000000000000E+00
 1.180000000000000E+00
 1.180000000000000E+00
 1.180000000000000E+00
 1.180000000000000E+00
 1.180000000000000E+00
 1.180000000000000E+00
 1.180000000000000E+00