 VARIABLES = "X" "Y" "Z"
 ZONE T="pass_35"
N=33151 E=66298
 ZONETYPE=FETriangle
 DATAPACKING=BLOCK
 VARLOCATION = ([1-3]=NODAL)
 DT=(DOUBLE DOUBLE DOUBLE)
 
-7.868608890764575E-02
-7.819059163670251E-02
-7.855142800444710E-02
-7.861423681921539E-02
-7.855765793030306E-02
-7.841391490233503E-02
-7.816967598667582E-02
-7.788587587456025E-02
-7.777556653661596E-02
-7.779506684243677E-02
-7.800250819205747E-02
-7.831405010240648E-02
-7.860354054654155E-02
-7.858612843519602E-02
-7.906641968167825E-02
-7.884880073261433E-02
-7.846370094560230E-02
-7.795639990891409E-02
-7.730596379586582E-02
-7.648020339071862E-02
-7.685379060130168E-02
-7.801656965277502E-02
-7.799003495932014E-02
-7.827261741993070E-02
-7.852601835839769E-02
-7.863413543476050E-02
-7.926177573836023E-02
-7.855128519807465E-02
-7.852732367574358E-02
-7.845581422926676E-02
-7.844768458575241E-02
-7.837866374889425E-02
-7.816388528744665E-02
-7.779325786527450E-02
-7.773676344433984E-02
-7.805141573166932E-02
-7.824122942196447E-02
-7.829291235149061E-02
-7.824519109910820E-02
-7.846844499586625E-02
-7.877703485362150E-02
-7.900672701825648E-02
-7.814169640814315E-02
-7.850650467060064E-02
-7.758970731946739E-02
-7.782279415864440E-02
-7.656221238131859E-02
-7.703776373827502E-02
-7.782036473339142E-02
-7.710414628844549E-02
-7.775102899832557E-02
-7.823826414818234E-02
-7.881631892837283E-02
-7.851465600674140E-02
-7.799381708353667E-02
-7.826738650374136E-02
-7.827040163929994E-02
-7.814943080390149E-02
-7.779840895139810E-02
-7.745355404310351E-02
-7.731771699992845E-02
-7.701786834923148E-02
-7.815823840127938E-02
-7.791860035104374E-02
-7.774650308155394E-02
-8.000000000000000E-02
-8.000000000000000E-02
-7.976460275468772E-02
-8.000000000000000E-02
-7.968037351715856E-02
-7.994036445566031E-02
-7.989102708694615E-02
-7.992591314742982E-02
-7.992540942578485E-02
-8.000000000000000E-02
-7.976348475401467E-02
-7.961961941861830E-02
-7.944890137648031E-02
-7.982775333360688E-02
-7.954259220883286E-02
-7.910855670588818E-02
-7.999999432176563E-02
-7.989782794804916E-02
-8.000000000000000E-02
-7.986383001868226E-02
-7.997855179055836E-02
-8.000000000000000E-02
-7.997217729348055E-02
-7.969769749949002E-02
-8.000000000000000E-02
-8.000000000000000E-02
-8.000000000000000E-02
-8.000000000000000E-02
-8.000000000000000E-02
-8.000000000000000E-02
-8.000000000000000E-02
-7.993843476109952E-02
-8.000000000000000E-02
-8.000000000000000E-02
-8.000000000000000E-02
-8.000000000000000E-02
-7.972889875298961E-02
-8.000000000000000E-02
-8.000000000000000E-02
-8.000000000000000E-02
-8.000000000000000E-02
-7.970469922630849E-02
-7.979745490411067E-02
-7.998245211810213E-02
-8.000000000000000E-02
-8.000000000000000E-02
-8.000000000000000E-02
-7.980860370751683E-02
-8.000000000000000E-02
-8.000000000000000E-02
-8.000000000000000E-02
-8.000000000000000E-02
-8.000000000000000E-02
-8.000000000000000E-02
-8.000000000000000E-02
-8.000000000000000E-02
-8.000000000000000E-02
-7.985253453755403E-02
-8.000000000000000E-02
-8.000000000000000E-02
-8.000000000000000E-02
-8.000000000000000E-02
-8.000000000000000E-02
-7.986642087772332E-02
-8.000000000000000E-02
-8.000000000000000E-02
-8.000000000000000E-02
-8.000000000000000E-02
-8.000000000000000E-02
-8.000000000000000E-02
-8.000000000000000E-02
-8.000000000000000E-02
-8.000000000000000E-02
-7.985712401076958E-02
-8.000000000000000E-02
-8.000000000000000E-02
-8.000000000000000E-02
-8.000000000000000E-02
-8.000000000000000E-02
-8.000000000000000E-02
-8.000000000000000E-02
-8.000000000000000E-02
-7.985319260026974E-02
-8.000000000000000E-02
-8.000000000000000E-02
-8.000000000000000E-02
-8.000000000000000E-02
-8.000000000000000E-02
-8.000000000000000E-02
-8.000000000000000E-02
-8.000000000000000E-02
-8.000000000000000E-02
-8.000000000000000E-02
-7.988276738067156E-02
-8.000000000000000E-02
-8.000000000000000E-02
-8.000000000000000E-02
-8.000000000000000E-02
-8.000000000000000E-02
-8.000000000000000E-02
-8.000000000000000E-02
-7.991899246965273E-02
-8.000000000000000E-02
-8.000000000000000E-02
-8.000000000000000E-02
-8.000000000000000E-02
-8.000000000000000E-02
-8.000000000000000E-02
-8.000000000000000E-02
-8.000000000000000E-02
-8.000000000000000E-02
-8.000000000000000E-02
-8.000000000000000E-02
-8.000000000000000E-02
-8.000000000000000E-02
-7.993495308459887E-02
-8.000000000000000E-02
-8.000000000000000E-02
-8.000000000000000E-02
-7.984656208429070E-02
-8.000000000000000E-02
-8.000000000000000E-02
-8.000000000000000E-02
-8.000000000000000E-02
-8.000000000000000E-02
-8.000000000000000E-02
-8.000000000000000E-02
-8.000000000000000E-02
-8.000000000000000E-02
-8.000000000000000E-02
-8.000000000000000E-02
-8.000000000000000E-02
-8.000000000000000E-02
-8.000000000000000E-02
-7.991658251328985E-02
-8.000000000000000E-02
-8.000000000000000E-02
-8.000000000000000E-02
-8.000000000000000E-02
-8.000000000000000E-02
-8.000000000000000E-02
-8.000000000000000E-02
-8.000000000000000E-02
-8.000000000000000E-02
-7.999942212914750E-02
-8.000000000000000E-02
-8.000000000000000E-02
-8.000000000000000E-02
-8.000000000000000E-02
-8.000000000000000E-02
-8.000000000000000E-02
-8.000000000000000E-02
-8.000000000000000E-02
-8.000000000000000E-02
-8.000000000000000E-02
-8.000000000000000E-02
-7.999535265387631E-02
-8.000000000000000E-02
-8.000000000000000E-02
-8.000000000000000E-02
-8.000000000000000E-02
-8.000000000000000E-02
-7.998565758621987E-02
-8.000000000000000E-02
-7.995332770318449E-02
-8.000000000000000E-02
-8.000000000000000E-02
-8.000000000000000E-02
-8.000000000000000E-02
-8.000000000000000E-02
-8.000000000000000E-02
-8.000000000000000E-02
-8.000000000000000E-02
-8.000000000000000E-02
-8.000000000000000E-02
-8.000000000000000E-02
-8.000000000000000E-02
-7.979522772745493E-02
-8.000000000000000E-02
-8.000000000000000E-02
-8.000000000000000E-02
-8.000000000000000E-02
-8.000000000000000E-02
-8.000000000000000E-02
-7.941173689756606E-02
-8.000000000000000E-02
-8.000000000000000E-02
-8.000000000000000E-02
-8.000000000000000E-02
-8.000000000000000E-02
-8.000000000000000E-02
-8.000000000000000E-02
-8.000000000000000E-02
-8.000000000000000E-02
-8.000000000000000E-02
-8.000000000000000E-02
-7.995199855344648E-02
-7.863948403821625E-02
-8.000000000000000E-02
-8.000000000000000E-02
-8.000000000000000E-02
-8.000000000000000E-02
-8.000000000000000E-02
-8.000000000000000E-02
-7.938881277441473E-02
-8.000000000000000E-02
-7.934103778668779E-02
-8.000000000000000E-02
-8.000000000000000E-02
-8.000000000000000E-02
-8.000000000000000E-02
-8.000000000000000E-02
-8.000000000000000E-02
-8.000000000000000E-02
-8.000000000000000E-02
-8.000000000000000E-02
-8.000000000000000E-02
-8.000000000000000E-02
-8.000000000000000E-02
-7.972087638787921E-02
-7.971433030043631E-02
-8.000000000000000E-02
-8.000000000000000E-02
-8.000000000000000E-02
-8.000000000000000E-02
-8.000000000000000E-02
-7.986271935747992E-02
-8.000000000000000E-02
-8.000000000000000E-02
-8.000000000000000E-02
-8.000000000000000E-02
-8.000000000000000E-02
-8.000000000000000E-02
-8.000000000000000E-02
-8.000000000000000E-02
-8.000000000000000E-02
-8.000000000000000E-02
-8.000000000000000E-02
-8.000000000000000E-02
-8.000000000000000E-02
-8.000000000000000E-02
-8.000000000000000E-02
-8.000000000000000E-02
-8.000000000000000E-02
-7.993391439765583E-02
-8.000000000000000E-02
-8.000000000000000E-02
-8.000000000000000E-02
-8.000000000000000E-02
-7.956763345810750E-02
-8.000000000000000E-02
-8.000000000000000E-02
-8.000000000000000E-02
-8.000000000000000E-02
-8.000000000000000E-02
-8.000000000000000E-02
-8.000000000000000E-02
-8.000000000000000E-02
-8.000000000000000E-02
-8.000000000000000E-02
-8.000000000000000E-02
-7.989621763734894E-02
-7.995247668218110E-02
-8.000000000000000E-02
-8.000000000000000E-02
-8.000000000000000E-02
-8.000000000000000E-02
-8.000000000000000E-02
-8.000000000000000E-02
-8.000000000000000E-02
-8.000000000000000E-02
-8.000000000000000E-02
-8.000000000000000E-02
-7.988350314993357E-02
-8.000000000000000E-02
-8.000000000000000E-02
-8.000000000000000E-02
-8.000000000000000E-02
-8.000000000000000E-02
-8.000000000000000E-02
-8.000000000000000E-02
-8.000000000000000E-02
-8.000000000000000E-02
-8.000000000000000E-02
-8.000000000000000E-02
-8.000000000000000E-02
-8.000000000000000E-02
-7.994757201258759E-02
-8.000000000000000E-02
-8.000000000000000E-02
-8.000000000000000E-02
-8.000000000000000E-02
-8.000000000000000E-02
-7.996974935686899E-02
-8.000000000000000E-02
-7.969374662082224E-02
-8.000000000000000E-02
-8.000000000000000E-02
-8.000000000000000E-02
-8.000000000000000E-02
-8.000000000000000E-02
-8.000000000000000E-02
-8.000000000000000E-02
-8.000000000000000E-02
-8.000000000000000E-02
-8.000000000000000E-02
-8.000000000000000E-02
-8.000000000000000E-02
-7.996705535718987E-02
-8.000000000000000E-02
-8.000000000000000E-02
-8.000000000000000E-02
-8.000000000000000E-02
-8.000000000000000E-02
-7.994393661744244E-02
-8.000000000000000E-02
-8.000000000000000E-02
-8.000000000000000E-02
-8.000000000000000E-02
-8.000000000000000E-02
-8.000000000000000E-02
-8.000000000000000E-02
-8.000000000000000E-02
-8.000000000000000E-02
-8.000000000000000E-02
-8.000000000000000E-02
-7.989187046922784E-02
-8.000000000000000E-02
-8.000000000000000E-02
-8.000000000000000E-02
-7.980394382152842E-02
 1.179139730607263E+00
 1.179434344604926E+00
 1.179391965279902E+00
 1.179251591066714E+00
 1.179046541339168E+00
 1.178859634985050E+00
 1.178655361932576E+00
 1.178144217637248E+00
 1.178741050899231E+00
 1.178167284204732E+00
 1.177442121474483E+00
 1.178223805486379E+00
 1.177793898197501E+00
 1.177168002376621E+00
 1.178034427492553E+00
 1.177785907918123E+00
 1.177185907232925E+00
 1.177758590958230E+00
 1.176910419845283E+00
 1.177452344480630E+00
 1.176702869812875E+00
 1.178184708521046E+00
 1.177283952108227E+00
 1.177680784293217E+00
 1.178124913890931E+00
 1.178736583745919E+00
 1.179266969872053E+00
 1.178368593734678E+00
 1.178807764113771E+00
 1.178263688900928E+00
 1.178553972133199E+00
 1.178546229292393E+00
 1.178424828387646E+00
 1.178088372518631E+00
 1.177368897036627E+00
 1.177554217935446E+00
 1.177575628613792E+00
 1.177694278077596E+00
 1.177984927176946E+00
 1.178236403736839E+00
 1.178335129303196E+00
 1.178204345892726E+00
 1.177967541584474E+00
 1.177593706278565E+00
 1.177050778267219E+00
 1.176246562677119E+00
 1.176576659480647E+00
 1.177297778914067E+00
 1.177512938022230E+00
 1.178631070883353E+00
 1.178354269925736E+00
 1.178845719536609E+00
 1.178755486417826E+00
 1.179279502417322E+00
 1.179147098670642E+00
 1.178973327283597E+00
 1.178830960688508E+00
 1.178739644074467E+00
 1.178568888951629E+00
 1.178377499582087E+00
 1.178023877134930E+00
 1.177705908891199E+00
 1.177585233032895E+00
 1.177388174771959E+00
 1.177319881782396E+00
 1.177049881246279E+00
 1.176757280627841E+00
 1.177674289947510E+00
 1.177415225188485E+00
 1.177240259509136E+00
 1.176647530888925E+00
 1.175874352451611E+00
 1.175722247181983E+00
 1.176674733399302E+00
 1.177068695609696E+00
 1.178254059839999E+00
 1.177763758776997E+00
 1.177766692622749E+00
 1.179364384890509E+00
 1.179232435019955E+00
 1.179268811333479E+00
 1.179270405763337E+00
 1.179146504037361E+00
 1.179065125111094E+00
 1.179018078995236E+00
 1.178876942743124E+00
 1.178564806924609E+00
 1.178328207961637E+00
 1.178250844916981E+00
 1.178228153848287E+00
 1.178205958806470E+00
 1.178133313927559E+00
 1.177931577418736E+00
 1.177357712484679E+00
 1.177817691370339E+00
 1.177865791535718E+00
 1.177656649127996E+00
 1.177213353142164E+00
 1.176435836815897E+00
 1.177530563383720E+00
 1.178487820267993E+00
 1.178870854227140E+00
 1.178776231641542E+00
 1.178492080143394E+00
 1.179307496915755E+00
 1.178710131243937E+00
 1.178186865358541E+00
 1.178404822009475E+00
 1.178358721498359E+00
 1.178226403022439E+00
 1.178602237277546E+00
 1.177663022398041E+00
 1.177487821706530E+00
 1.176978166996301E+00
 1.177301046590076E+00
 1.177411292740891E+00
 1.177458859415996E+00
 1.177608887776140E+00
 1.177554097190053E+00
 1.177599109356142E+00
 1.177413317566818E+00
 1.177269189170295E+00
 1.177158525379213E+00
 1.176917582925289E+00
 1.176438496527923E+00
 1.177450234928426E+00
 1.178309838473909E+00
 1.178734819877130E+00
 1.178779557749455E+00
 1.178499876941299E+00
 1.180000000000000E+00
 1.180000000000000E+00
 1.180000000000000E+00
 1.180000000000000E+00
 1.180000000000000E+00
 1.180000000000000E+00
 1.180000000000000E+00
 1.180000000000000E+00
 1.180000000000000E+00
 1.180000000000000E+00
 1.180000000000000E+00
 1.180000000000000E+00
 1.180000000000000E+00
 1.180000000000000E+00
 1.180000000000000E+00
 1.180000000000000E+00
 1.180000000000000E+00
 1.180000000000000E+00
 1.180000000000000E+00
 1.180000000000000E+00
 1.180000000000000E+00
 1.180000000000000E+00
 1.180000000000000E+00
 1.180000000000000E+00
 1.180000000000000E+00
 1.180000000000000E+00
 1.180000000000000E+00
 1.180000000000000E+00
 1.180000000000000E+00
 1.180000000000000E+00
 1.180000000000000E+00
 1.180000000000000E+00
 1.180000000000000E+00
 1.180000000000000E+00
 1.180000000000000E+00
 1.180000000000000E+00
 1.180000000000000E+00
 1.180000000000000E+00
 1.179791588325186E+00
 1.179258720625588E+00
 1.179351473552438E+00
 1.179876289790494E+00
 1.179745284237114E+00
 1.179926048435570E+00
 1.180000000000000E+00
 1.180000000000000E+00
 1.180000000000000E+00
 1.180000000000000E+00
 1.180000000000000E+00
 1.180000000000000E+00
 1.180000000000000E+00
 1.180000000000000E+00
 1.180000000000000E+00
 1.179698089705350E+00
 1.180000000000000E+00
 1.180000000000000E+00
 1.180000000000000E+00
 1.180000000000000E+00
 1.180000000000000E+00
 1.180000000000000E+00
 1.180000000000000E+00
 1.180000000000000E+00
 1.180000000000000E+00
 1.180000000000000E+00
 1.180000000000000E+00
 1.180000000000000E+00
 1.180000000000000E+00
 1.180000000000000E+00
 1.179813018796378E+00
 1.180000000000000E+00
 1.180000000000000E+00
 1.180000000000000E+00
 1.180000000000000E+00
 1.180000000000000E+00
 1.180000000000000E+00
 1.180000000000000E+00
 1.180000000000000E+00
 1.180000000000000E+00
 1.180000000000000E+00
 1.180000000000000E+00
 1.180000000000000E+00
 1.180000000000000E+00
 1.180000000000000E+00
 1.180000000000000E+00
 1.180000000000000E+00
 1.180000000000000E+00
 1.180000000000000E+00
 1.180000000000000E+00
 1.179784594515062E+00
 1.180000000000000E+00
 1.180000000000000E+00
 1.180000000000000E+00
 1.180000000000000E+00
 1.180000000000000E+00
 1.180000000000000E+00
 1.180000000000000E+00
 1.180000000000000E+00
 1.180000000000000E+00
 1.180000000000000E+00
 1.180000000000000E+00
 1.180000000000000E+00
 1.180000000000000E+00
 1.180000000000000E+00
 1.180000000000000E+00
 1.180000000000000E+00
 1.180000000000000E+00
 1.179197318485835E+00
 1.179989997064523E+00
 1.180000000000000E+00
 1.180000000000000E+00
 1.180000000000000E+00
 1.180000000000000E+00
 1.180000000000000E+00
 1.180000000000000E+00
 1.180000000000000E+00
 1.180000000000000E+00
 1.180000000000000E+00
 1.180000000000000E+00
 1.180000000000000E+00
 1.180000000000000E+00
 1.180000000000000E+00
 1.180000000000000E+00
 1.180000000000000E+00
 1.180000000000000E+00
 1.180000000000000E+00
 1.180000000000000E+00
 1.179008400278410E+00
 1.180000000000000E+00
 1.180000000000000E+00
 1.180000000000000E+00
 1.180000000000000E+00
 1.180000000000000E+00
 1.179297882361661E+00
 1.180000000000000E+00
 1.180000000000000E+00
 1.180000000000000E+00
 1.180000000000000E+00
 1.180000000000000E+00
 1.180000000000000E+00
 1.180000000000000E+00
 1.180000000000000E+00
 1.180000000000000E+00
 1.180000000000000E+00
 1.180000000000000E+00
 1.179062619468753E+00
 1.179943726241113E+00
 1.180000000000000E+00
 1.180000000000000E+00
 1.180000000000000E+00
 1.180000000000000E+00
 1.180000000000000E+00
 1.180000000000000E+00
 1.180000000000000E+00
 1.180000000000000E+00
 1.179683842255141E+00
 1.180000000000000E+00
 1.180000000000000E+00
 1.180000000000000E+00
 1.180000000000000E+00
 1.180000000000000E+00
 1.180000000000000E+00
 1.180000000000000E+00
 1.180000000000000E+00
 1.180000000000000E+00
 1.180000000000000E+00
 1.180000000000000E+00
 1.180000000000000E+00
 1.180000000000000E+00
 1.180000000000000E+00
 1.179214248726693E+00
 1.179970061186111E+00
 1.180000000000000E+00
 1.180000000000000E+00
 1.180000000000000E+00
 1.180000000000000E+00
 1.180000000000000E+00
 1.180000000000000E+00
 1.179586801416481E+00
 1.180000000000000E+00
 1.180000000000000E+00
 1.180000000000000E+00
 1.180000000000000E+00
 1.180000000000000E+00
 1.180000000000000E+00
 1.180000000000000E+00
 1.180000000000000E+00
 1.180000000000000E+00
 1.180000000000000E+00
 1.180000000000000E+00
 1.180000000000000E+00
 1.180000000000000E+00
 1.180000000000000E+00
 1.180000000000000E+00
 1.180000000000000E+00
 1.180000000000000E+00
 1.180000000000000E+00
 1.180000000000000E+00
 1.180000000000000E+00
 1.179368046150137E+00
 1.180000000000000E+00
 1.180000000000000E+00
 1.180000000000000E+00
 1.180000000000000E+00
 1.180000000000000E+00
 1.180000000000000E+00
 1.180000000000000E+00
 1.180000000000000E+00
 1.180000000000000E+00
 1.180000000000000E+00
 1.179023565170962E+00
 1.179962508726289E+00
 1.180000000000000E+00
 1.180000000000000E+00
 1.180000000000000E+00
 1.180000000000000E+00
 1.180000000000000E+00
 1.180000000000000E+00
 1.180000000000000E+00
 1.180000000000000E+00
 1.180000000000000E+00
 1.180000000000000E+00
 1.180000000000000E+00
 1.180000000000000E+00
 1.180000000000000E+00
 1.180000000000000E+00
 1.180000000000000E+00
 1.179400049384547E+00
 1.180000000000000E+00
 1.180000000000000E+00
 1.180000000000000E+00
 1.180000000000000E+00
 1.180000000000000E+00
 1.180000000000000E+00
 1.180000000000000E+00
 1.180000000000000E+00
 1.180000000000000E+00
 1.179696272841294E+00
 1.179988236785509E+00
 1.180000000000000E+00
 1.180000000000000E+00
 1.180000000000000E+00
 1.180000000000000E+00
 1.180000000000000E+00
 1.180000000000000E+00
 1.180000000000000E+00
 1.178953302152513E+00
 1.179980740940848E+00
 1.180000000000000E+00
 1.180000000000000E+00
 1.180000000000000E+00
 1.180000000000000E+00
 1.180000000000000E+00
 1.180000000000000E+00
 1.180000000000000E+00
 1.180000000000000E+00
 1.180000000000000E+00
 1.180000000000000E+00
 1.180000000000000E+00
 1.180000000000000E+00
 1.180000000000000E+00
 1.180000000000000E+00
 1.180000000000000E+00
 1.180000000000000E+00
 1.179337188038033E+00
 1.180000000000000E+00
 1.180000000000000E+00
 1.180000000000000E+00
 1.180000000000000E+00
 1.180000000000000E+00
 1.180000000000000E+00
 1.180000000000000E+00
 1.180000000000000E+00
 1.180000000000000E+00
 1.180000000000000E+00
 1.178982340419482E+00
 1.179991137511654E+00
 1.180000000000000E+00
 1.180000000000000E+00
 1.180000000000000E+00
 1.180000000000000E+00
 1.180000000000000E+00
 1.180000000000000E+00
 1.180000000000000E+00
 1.180000000000000E+00
 1.180000000000000E+00
 1.180000000000000E+00
 1.180000000000000E+00
 1.180000000000000E+00
 1.180000000000000E+00
 1.180000000000000E+00
 1.180000000000000E+00
 1.180000000000000E+00
 1.180000000000000E+00
 1.180000000000000E+00
 1.180000000000000E+00
 1.180000000000000E+00
 1.180000000000000E+00
 1.180000000000000E+00
 1.180000000000000E+00
 1.179600821572742E+00
 1.180000000000000E+00
 1.180000000000000E+00
 1.180000000000000E+00
 1.180000000000000E+00
 1.180000000000000E+00
 1.180000000000000E+00
 1.180000000000000E+00
 1.180000000000000E+00
 1.180000000000000E+00
 1.180000000000000E+00
 1.180000000000000E+00
 1.180000000000000E+00
 1.179936359310787E+00
 1.180000000000000E+00
 1.180000000000000E+00
 1.180000000000000E+00
 1.180000000000000E+00
 1.180000000000000E+00
 1.180000000000000E+00
 1.180000000000000E+00
 1.180000000000000E+00
 1.180000000000000E+00
 1.180000000000000E+00
 1.180000000000000E+00
 1.180000000000000E+00
 1.180000000000000E+00
 1.180000000000000E+00
 1.180000000000000E+00
 1.180000000000000E+00
 1.180000000000000E+00
 1.179825093830544E+00
 1.180000000000000E+00
 1.180000000000000E+00
 1.180000000000000E+00
 1.180000000000000E+00
 1.180000000000000E+00
 1.180000000000000E+00
 1.180000000000000E+00
 1.180000000000000E+00
 1.180000000000000E+00
 1.180000000000000E+00
 1.180000000000000E+00
 1.180000000000000E+00
 1.180000000000000E+00
 1.180000000000000E+00
 1.180000000000000E+00
 1.180000000000000E+00
 1.179938509167015E+00
 1.180000000000000E+00
 1.180000000000000E+00
 1.180000000000000E+00
 1.180000000000000E+00
 1.180000000000000E+00
 1.180000000000000E+00
 1.180000000000000E+00
 1.180000000000000E+00
 1.180000000000000E+00
 1.180000000000000E+00
 1.180000000000000E+00
 1.180000000000000E+00
 1.180000000000000E+00
 1.180000000000000E+00
 1.180000000000000E+00
 1.180000000000000E+00
 1.180000000000000E+00
 1.180000000000000E+00
 1.180000000000000E+00
 1.180000000000000E+00
 1.180000000000000E+00
 1.180000000000000E+00
 1.180000000000000E+00
 1.180000000000000E+00
 1.180000000000000E+00
 1.180000000000000E+00
 1.179945729216469E+00
 1.180000000000000E+00
 1.180000000000000E+00
 1.180000000000000E+00
 1.180000000000000E+00
 1.180000000000000E+00
 1.180000000000000E+00
 1.180000000000000E+00
 1.180000000000000E+00
 1.179999017479916E+00
 1.180000000000000E+00
 1.180000000000000E+00
 1.180000000000000E+00
 1.180000000000000E+00
 1.180000000000000E+00
 1.180000000000000E+00
 1.180000000000000E+00
 1.180000000000000E+00
 1.180000000000000E+00
 1.180000000000000E+00
 1.180000000000000E+00
 1.180000000000000E+00
 1.180000000000000E+00
 1.180000000000000E+00
 1.180000000000000E+00
 1.180000000000000E+00
 1.180000000000000E+00
 1.179292529697296E+00
 1.179852889235646E+00
 1.180000000000000E+00
 1.180000000000000E+00
 1.180000000000000E+00
 1.180000000000000E+00
 1.180000000000000E+00
 1.180000000000000E+00
 1.180000000000000E+00
 1.180000000000000E+00
 1.180000000000000E+00
 1.180000000000000E+00
 1.180000000000000E+00
 1.180000000000000E+00
 1.180000000000000E+00
 1.180000000000000E+00
 1.180000000000000E+00
 1.180000000000000E+00
 1.180000000000000E+00
 1.180000000000000E+00
 1.180000000000000E+00
 1.180000000000000E+00
 1.180000000000000E+00
 1.180000000000000E+00
 1.180000000000000E+00
 1.180000000000000E+00
 1.180000000000000E+00
 1.180000000000000E+00
 1.180000000000000E+00
 1.180000000000000E+00
 1.180000000000000E+00
 1.180000000000000E+00
 1.180000000000000E+00
 1.180000000000000E+00
 1.180000000000000E+00
 1.180000000000000E+00
 1.180000000000000E+00
 1.180000000000000E+00
 1.180000000000000E+00
 1.180000000000000E+00
 1.180000000000000E+00
 1.180000000000000E+00
 1.180000000000000E+00
 1.180000000000000E+00
 1.180000000000000E+00
 1.180000000000000E+00
 1.180000000000000E+00
 1.180000000000000E+00
 1.180000000000000E+00
 1.180000000000000E+00
 1.180000000000000E+00
 1.180000000000000E+00
 1.180000000000000E+00
 1.180000000000000E+00
 1.180000000000000E+00
 1.180000000000000E+00
 1.180000000000000E+00
 1.179962120963796E+00
 1.180000000000000E+00
 1.180000000000000E+00
 1.180000000000000E+00
 1.180000000000000E+00
 1.180000000000000E+00
 1.180000000000000E+00
 1.180000000000000E+00
 1.180000000000000E+00
 1.180000000000000E+00
 1.180000000000000E+00
 1.180000000000000E+00
 1.180000000000000E+00
 1.180000000000000E+00
 1.180000000000000E+00
 1.180000000000000E+00
 1.180000000000000E+00
 1.180000000000000E+00
 1.179994679084895E+00
 1.180000000000000E+00
 1.180000000000000E+00
 1.180000000000000E+00
 1.180000000000000E+00
 1.180000000000000E+00
 1.180000000000000E+00
 1.180000000000000E+00
 1.180000000000000E+00
 1.180000000000000E+00
 1.180000000000000E+00
 1.180000000000000E+00
 1.180000000000000E+00
 1.180000000000000E+00
 1.180000000000000E+00
 1.180000000000000E+00
 1.180000000000000E+00
 1.180000000000000E+00
 1.180000000000000E+00
 1.180000000000000E+00
 1.180000000000000E+00
 1.180000000000000E+00
 1.180000000000000E+00
 1.180000000000000E+00
 1.179999971001870E+00
 1.180000000000000E+00
 1.180000000000000E+00
 1.180000000000000E+00
 1.180000000000000E+00
 1.180000000000000E+00
 1.180000000000000E+00
 1.180000000000000E+00
 1.180000000000000E+00
 1.180000000000000E+00
 1.180000000000000E+00
 1.180000000000000E+00
 1.180000000000000E+00
 1.180000000000000E+00
 1.180000000000000E+00
 1.180000000000000E+00
 1.180000000000000E+00
 1.180000000000000E+00
 1.180000000000000E+00
 1.180000000000000E+00
 1.180000000000000E+00
 1.180000000000000E+00
 1.180000000000000E+00
 1.180000000000000E+00
 1.180000000000000E+00
 1.180000000000000E+00
 1.180000000000000E+00
 1.180000000000000E+00
 1.180000000000000E+00
 1.180000000000000E+00
 1.180000000000000E+00
 1.180000000000000E+00
 1.180000000000000E+00
 1.180000000000000E+00
 1.180000000000000E+00
 1.180000000000000E+00
 1.180000000000000E+00
 1.180000000000000E+00
 1.180000000000000E+00
 1.180000000000000E+00
 1.180000000000000E+00
 1.180000000000000E+00
 1.180000000000000E+00
 1.180000000000000E+00
 1.180000000000000E+00
 1.180000000000000E+00
 1.180000000000000E+00
 1.180000000000000E+00
 1.180000000000000E+00
 1.180000000000000E+00
 1.180000000000000E+00
 1.180000000000000E+00
 1.179862269561308E+00
 1.180000000000000E+00
 1.180000000000000E+00
 1.180000000000000E+00
 1.180000000000000E+00
 1.180000000000000E+00
 1.180000000000000E+00
 1.180000000000000E+00
 1.180000000000000E+00
 1.180000000000000E+00
 1.180000000000000E+00
 1.179081657722929E+00
 1.179727585150199E+00
 1.180000000000000E+00
 1.180000000000000E+00
 1.180000000000000E+00
 1.180000000000000E+00
 1.180000000000000E+00
 1.180000000000000E+00
 1.180000000000000E+00
 1.180000000000000E+00
 1.180000000000000E+00
 1.180000000000000E+00
 1.180000000000000E+00
 1.180000000000000E+00
 1.180000000000000E+00
 1.180000000000000E+00
 1.180000000000000E+00
 1.180000000000000E+00
 1.180000000000000E+00
 1.180000000000000E+00
 1.180000000000000E+00
 1.179902369868352E+00
 1.180000000000000E+00
 1.180000000000000E+00
 1.180000000000000E+00
 1.180000000000000E+00
 1.180000000000000E+00
 1.180000000000000E+00
 1.180000000000000E+00
 1.180000000000000E+00
 1.180000000000000E+00
 1.180000000000000E+00
 1.180000000000000E+00
 1.180000000000000E+00
 1.180000000000000E+00
 1.180000000000000E+00
 1.180000000000000E+00
 1.179926628146920E+00
 1.180000000000000E+00
 1.180000000000000E+00
 1.180000000000000E+00
 1.180000000000000E+00
 1.180000000000000E+00
 1.180000000000000E+00
 1.180000000000000E+00
 1.180000000000000E+00
 1.180000000000000E+00
 1.180000000000000E+00
 1.180000000000000E+00
 1.180000000000000E+00
 1.180000000000000E+00
 1.180000000000000E+00
 1.180000000000000E+00
 1.180000000000000E+00
 1.180000000000000E+00
 1.180000000000000E+00
 1.180000000000000E+00
 1.180000000000000E+00
 1.180000000000000E+00
 1.180000000000000E+00
 1.180000000000000E+00
 1.180000000000000E+00
 1.180000000000000E+00
 1.180000000000000E+00
 1.180000000000000E+00
 1.179940484117631E+00
 1.180000000000000E+00
 1.180000000000000E+00
 1.180000000000000E+00
 1.180000000000000E+00
 1.180000000000000E+00
 1.180000000000000E+00
 1.180000000000000E+00
 1.180000000000000E+00
 1.180000000000000E+00
 1.180000000000000E+00
 1.179944438776246E+00
 1.180000000000000E+00
 1.180000000000000E+00
 1.180000000000000E+00
 1.180000000000000E+00
 1.179551641771177E+00
 1.179865411680158E+00
 1.179995077640887E+00
 1.180000000000000E+00
 1.180000000000000E+00
 1.180000000000000E+00
 1.180000000000000E+00
 1.180000000000000E+00
 1.180000000000000E+00
 1.180000000000000E+00
 1.180000000000000E+00
 1.180000000000000E+00
 1.180000000000000E+00
 1.180000000000000E+00
 1.180000000000000E+00
 1.180000000000000E+00
 1.180000000000000E+00
 1.180000000000000E+00
 1.180000000000000E+00
 1.180000000000000E+00
 1.180000000000000E+00
 1.180000000000000E+00
 1.180000000000000E+00
 1.180000000000000E+00
 1.180000000000000E+00
 1.180000000000000E+00
 1.180000000000000E+00
 1.180000000000000E+00
 1.180000000000000E+00
 1.180000000000000E+00
 1.180000000000000E+00
 1.179925387015943E+00
 1.180000000000000E+00
 1.180000000000000E+00
 1.180000000000000E+00
 1.180000000000000E+00
 1.180000000000000E+00
 1.180000000000000E+00
 1.180000000000000E+00
 1.180000000000000E+00
 1.180000000000000E+00
 1.180000000000000E+00
 1.180000000000000E+00
 1.180000000000000E+00
 1.179914880481568E+00
 1.180000000000000E+00
 1.180000000000000E+00
 1.180000000000000E+00
 1.180000000000000E+00
 1.180000000000000E+00
 1.180000000000000E+00
 1.180000000000000E+00
 1.180000000000000E+00
 1.180000000000000E+00
 1.180000000000000E+00
 1.180000000000000E+00
 1.180000000000000E+00
 1.179934129244946E+00
 1.180000000000000E+00
 1.180000000000000E+00
 1.180000000000000E+00
 1.180000000000000E+00
 1.180000000000000E+00
 1.180000000000000E+00
 1.180000000000000E+00
 1.180000000000000E+00
 1.180000000000000E+00
 1.180000000000000E+00
 1.180000000000000E+00
 1.180000000000000E+00
 1.180000000000000E+00
 1.180000000000000E+00
 1.180000000000000E+00
 1.180000000000000E+00
 1.179835822916470E+00
 1.180000000000000E+00
 1.180000000000000E+00
 1.180000000000000E+00
 1.180000000000000E+00
 1.180000000000000E+00
 1.180000000000000E+00
 1.180000000000000E+00
 1.180000000000000E+00
 1.180000000000000E+00
 1.180000000000000E+00
 1.180000000000000E+00
 1.180000000000000E+00
 1.180000000000000E+00
 1.180000000000000E+00
 1.180000000000000E+00
 1.179680746155649E+00
 1.180000000000000E+00
 1.180000000000000E+00
 1.180000000000000E+00
 1.180000000000000E+00
 1.179851378235923E+00
 1.180000000000000E+00
 1.180000000000000E+00
 1.180000000000000E+00
 1.180000000000000E+00
 1.180000000000000E+00
 1.179995005410228E+00
 1.180000000000000E+00
 1.180000000000000E+00
 1.180000000000000E+00
 1.180000000000000E+00
 1.180000000000000E+00
 1.180000000000000E+00
 1.180000000000000E+00
 1.180000000000000E+00
 1.180000000000000E+00
 1.180000000000000E+00
 1.180000000000000E+00
 1.180000000000000E+00
 1.180000000000000E+00
 1.180000000000000E+00
 1.180000000000000E+00
 1.180000000000000E+00
 1.179444257121533E+00
 1.180000000000000E+00
 1.180000000000000E+00
 1.180000000000000E+00
 1.180000000000000E+00
 1.180000000000000E+00
 1.180000000000000E+00
 1.180000000000000E+00
 1.180000000000000E+00