 VARIABLES = "X" "Y" "Z"
 ZONE T="pass_29"
N=33151 E=66298
 ZONETYPE=FETriangle
 DATAPACKING=BLOCK
 VARLOCATION = ([1-3]=NODAL)
 DT=(DOUBLE DOUBLE DOUBLE)
 
-7.922698062547655E-02
-7.879930655731700E-02
-7.908030466231054E-02
-7.911875595128154E-02
-7.904770933613316E-02
-7.889283916899287E-02
-7.864283347140916E-02
-7.835838003157247E-02
-7.825227366679875E-02
-7.830048811144132E-02
-7.850650352392642E-02
-7.881911294341713E-02
-7.914649794628442E-02
-7.915884013807291E-02
-7.951600630937543E-02
-7.933586871412142E-02
-7.900901450187599E-02
-7.852940562200986E-02
-7.789306849357919E-02
-7.707202308829336E-02
-7.745713547378473E-02
-7.857676710036089E-02
-7.860999251630887E-02
-7.887309199229428E-02
-7.909829583706761E-02
-7.920523215291597E-02
-7.965861861933626E-02
-7.914574819789073E-02
-7.907230526977031E-02
-7.898410921089949E-02
-7.893859803635841E-02
-7.884128470348242E-02
-7.861794533102255E-02
-7.826562229762403E-02
-7.822032554820932E-02
-7.853574595039323E-02
-7.874350319411745E-02
-7.882275349589861E-02
-7.880268323190801E-02
-7.909825792710047E-02
-7.930814789857299E-02
-7.946723422548002E-02
-7.870479203651609E-02
-7.902133740932663E-02
-7.816677920440789E-02
-7.838376404033705E-02
-7.713345825382260E-02
-7.759306065107584E-02
-7.839253587977973E-02
-7.768655373514174E-02
-7.835488566490764E-02
-7.889167812872401E-02
-7.934089945273626E-02
-7.907920087355660E-02
-7.858598693719616E-02
-7.882988701472546E-02
-7.881836641688805E-02
-7.867988743681928E-02
-7.833169533404488E-02
-7.798590728173979E-02
-7.780935485118566E-02
-7.752065839058486E-02
-7.868527932185446E-02
-7.849421310773294E-02
-7.836285193043151E-02
-8.000000000000000E-02
-8.000000000000000E-02
-7.994381147461506E-02
-8.000000000000000E-02
-7.993980351618041E-02
-8.000000000000000E-02
-7.999878319583129E-02
-8.000000000000000E-02
-8.000000000000000E-02
-8.000000000000000E-02
-7.995116643723431E-02
-7.986554018556233E-02
-7.976409117220745E-02
-7.997731777721341E-02
-7.981906849558901E-02
-7.950525314220439E-02
-8.000000000000000E-02
-7.999729599097796E-02
-8.000000000000000E-02
-7.999215766363227E-02
-8.000000000000000E-02
-8.000000000000000E-02
-8.000000000000000E-02
-7.992978532854479E-02
-8.000000000000000E-02
-8.000000000000000E-02
-8.000000000000000E-02
-8.000000000000000E-02
-8.000000000000000E-02
-8.000000000000000E-02
-8.000000000000000E-02
-8.000000000000000E-02
-8.000000000000000E-02
-8.000000000000000E-02
-8.000000000000000E-02
-8.000000000000000E-02
-7.994936240149279E-02
-8.000000000000000E-02
-8.000000000000000E-02
-8.000000000000000E-02
-8.000000000000000E-02
-7.992928390116211E-02
-7.997748972223799E-02
-8.000000000000000E-02
-8.000000000000000E-02
-8.000000000000000E-02
-8.000000000000000E-02
-7.997000491033515E-02
-8.000000000000000E-02
-8.000000000000000E-02
-8.000000000000000E-02
-8.000000000000000E-02
-8.000000000000000E-02
-8.000000000000000E-02
-8.000000000000000E-02
-8.000000000000000E-02
-8.000000000000000E-02
-7.998153310039417E-02
-8.000000000000000E-02
-8.000000000000000E-02
-8.000000000000000E-02
-8.000000000000000E-02
-8.000000000000000E-02
-7.998333922195219E-02
-8.000000000000000E-02
-8.000000000000000E-02
-8.000000000000000E-02
-8.000000000000000E-02
-8.000000000000000E-02
-8.000000000000000E-02
-8.000000000000000E-02
-8.000000000000000E-02
-8.000000000000000E-02
-7.997869695101890E-02
-8.000000000000000E-02
-8.000000000000000E-02
-8.000000000000000E-02
-8.000000000000000E-02
-8.000000000000000E-02
-8.000000000000000E-02
-8.000000000000000E-02
-8.000000000000000E-02
-7.997771978441474E-02
-8.000000000000000E-02
-8.000000000000000E-02
-8.000000000000000E-02
-8.000000000000000E-02
-8.000000000000000E-02
-8.000000000000000E-02
-8.000000000000000E-02
-8.000000000000000E-02
-8.000000000000000E-02
-8.000000000000000E-02
-7.998967703433545E-02
-8.000000000000000E-02
-8.000000000000000E-02
-8.000000000000000E-02
-8.000000000000000E-02
-8.000000000000000E-02
-8.000000000000000E-02
-8.000000000000000E-02
-7.999917216828593E-02
-8.000000000000000E-02
-8.000000000000000E-02
-8.000000000000000E-02
-8.000000000000000E-02
-8.000000000000000E-02
-8.000000000000000E-02
-8.000000000000000E-02
-8.000000000000000E-02
-8.000000000000000E-02
-8.000000000000000E-02
-8.000000000000000E-02
-8.000000000000000E-02
-8.000000000000000E-02
-8.000000000000000E-02
-8.000000000000000E-02
-8.000000000000000E-02
-8.000000000000000E-02
-7.999185411905678E-02
-8.000000000000000E-02
-8.000000000000000E-02
-8.000000000000000E-02
-8.000000000000000E-02
-8.000000000000000E-02
-8.000000000000000E-02
-8.000000000000000E-02
-8.000000000000000E-02
-8.000000000000000E-02
-8.000000000000000E-02
-8.000000000000000E-02
-8.000000000000000E-02
-8.000000000000000E-02
-8.000000000000000E-02
-7.999994462321552E-02
-8.000000000000000E-02
-8.000000000000000E-02
-8.000000000000000E-02
-8.000000000000000E-02
-8.000000000000000E-02
-8.000000000000000E-02
-8.000000000000000E-02
-8.000000000000000E-02
-8.000000000000000E-02
-8.000000000000000E-02
-8.000000000000000E-02
-8.000000000000000E-02
-8.000000000000000E-02
-8.000000000000000E-02
-8.000000000000000E-02
-8.000000000000000E-02
-8.000000000000000E-02
-8.000000000000000E-02
-8.000000000000000E-02
-8.000000000000000E-02
-8.000000000000000E-02
-8.000000000000000E-02
-8.000000000000000E-02
-8.000000000000000E-02
-8.000000000000000E-02
-8.000000000000000E-02
-8.000000000000000E-02
-8.000000000000000E-02
-8.000000000000000E-02
-8.000000000000000E-02
-8.000000000000000E-02
-8.000000000000000E-02
-8.000000000000000E-02
-8.000000000000000E-02
-8.000000000000000E-02
-8.000000000000000E-02
-8.000000000000000E-02
-8.000000000000000E-02
-8.000000000000000E-02
-8.000000000000000E-02
-8.000000000000000E-02
-8.000000000000000E-02
-7.997380612890130E-02
-8.000000000000000E-02
-8.000000000000000E-02
-8.000000000000000E-02
-8.000000000000000E-02
-8.000000000000000E-02
-8.000000000000000E-02
-7.975613540565052E-02
-8.000000000000000E-02
-8.000000000000000E-02
-8.000000000000000E-02
-8.000000000000000E-02
-8.000000000000000E-02
-8.000000000000000E-02
-8.000000000000000E-02
-8.000000000000000E-02
-8.000000000000000E-02
-8.000000000000000E-02
-8.000000000000000E-02
-8.000000000000000E-02
-7.913791323778829E-02
-8.000000000000000E-02
-8.000000000000000E-02
-8.000000000000000E-02
-8.000000000000000E-02
-8.000000000000000E-02
-8.000000000000000E-02
-7.969421259132821E-02
-8.000000000000000E-02
-7.971096771174700E-02
-8.000000000000000E-02
-8.000000000000000E-02
-8.000000000000000E-02
-8.000000000000000E-02
-8.000000000000000E-02
-8.000000000000000E-02
-8.000000000000000E-02
-8.000000000000000E-02
-8.000000000000000E-02
-8.000000000000000E-02
-8.000000000000000E-02
-8.000000000000000E-02
-7.994256840099008E-02
-7.994161156873703E-02
-8.000000000000000E-02
-8.000000000000000E-02
-8.000000000000000E-02
-8.000000000000000E-02
-8.000000000000000E-02
-7.999509248455100E-02
-8.000000000000000E-02
-8.000000000000000E-02
-8.000000000000000E-02
-8.000000000000000E-02
-8.000000000000000E-02
-8.000000000000000E-02
-8.000000000000000E-02
-8.000000000000000E-02
-8.000000000000000E-02
-8.000000000000000E-02
-8.000000000000000E-02
-8.000000000000000E-02
-8.000000000000000E-02
-8.000000000000000E-02
-8.000000000000000E-02
-8.000000000000000E-02
-8.000000000000000E-02
-8.000000000000000E-02
-8.000000000000000E-02
-8.000000000000000E-02
-8.000000000000000E-02
-8.000000000000000E-02
-7.981428467888595E-02
-8.000000000000000E-02
-8.000000000000000E-02
-8.000000000000000E-02
-8.000000000000000E-02
-8.000000000000000E-02
-8.000000000000000E-02
-8.000000000000000E-02
-8.000000000000000E-02
-8.000000000000000E-02
-8.000000000000000E-02
-8.000000000000000E-02
-7.999816504704485E-02
-8.000000000000000E-02
-8.000000000000000E-02
-8.000000000000000E-02
-8.000000000000000E-02
-8.000000000000000E-02
-8.000000000000000E-02
-8.000000000000000E-02
-8.000000000000000E-02
-8.000000000000000E-02
-8.000000000000000E-02
-8.000000000000000E-02
-7.999792253247734E-02
-8.000000000000000E-02
-8.000000000000000E-02
-8.000000000000000E-02
-8.000000000000000E-02
-8.000000000000000E-02
-8.000000000000000E-02
-8.000000000000000E-02
-8.000000000000000E-02
-8.000000000000000E-02
-8.000000000000000E-02
-8.000000000000000E-02
-8.000000000000000E-02
-8.000000000000000E-02
-8.000000000000000E-02
-8.000000000000000E-02
-8.000000000000000E-02
-8.000000000000000E-02
-8.000000000000000E-02
-8.000000000000000E-02
-8.000000000000000E-02
-8.000000000000000E-02
-7.988978407689598E-02
-8.000000000000000E-02
-8.000000000000000E-02
-8.000000000000000E-02
-8.000000000000000E-02
-8.000000000000000E-02
-8.000000000000000E-02
-8.000000000000000E-02
-8.000000000000000E-02
-8.000000000000000E-02
-8.000000000000000E-02
-8.000000000000000E-02
-8.000000000000000E-02
-8.000000000000000E-02
-8.000000000000000E-02
-8.000000000000000E-02
-8.000000000000000E-02
-8.000000000000000E-02
-8.000000000000000E-02
-8.000000000000000E-02
-8.000000000000000E-02
-8.000000000000000E-02
-8.000000000000000E-02
-8.000000000000000E-02
-8.000000000000000E-02
-8.000000000000000E-02
-8.000000000000000E-02
-8.000000000000000E-02
-8.000000000000000E-02
-8.000000000000000E-02
-8.000000000000000E-02
-7.999009661065734E-02
-8.000000000000000E-02
-8.000000000000000E-02
-8.000000000000000E-02
-7.995131325910422E-02
 1.179573987116203E+00
 1.179755466506874E+00
 1.179706494522915E+00
 1.179594488455214E+00
 1.179436364430833E+00
 1.179286971171099E+00
 1.179112259038691E+00
 1.178652817218359E+00
 1.179193348677782E+00
 1.178669600384581E+00
 1.177975707320479E+00
 1.178715273516208E+00
 1.178285092170589E+00
 1.177666475361445E+00
 1.178498261444896E+00
 1.178221013010425E+00
 1.177627708013852E+00
 1.178243022886207E+00
 1.177413941442967E+00
 1.177961069751919E+00
 1.177227826457621E+00
 1.178657751050063E+00
 1.177849799783198E+00
 1.178224372116017E+00
 1.178673895990705E+00
 1.179241161431743E+00
 1.179650564482806E+00
 1.178926911694843E+00
 1.179288492550854E+00
 1.178773177885663E+00
 1.179023116065882E+00
 1.179017531495732E+00
 1.178898069875931E+00
 1.178575202296858E+00
 1.177870978220256E+00
 1.178076819757868E+00
 1.178110313158345E+00
 1.178208326362264E+00
 1.178438855611851E+00
 1.178628173386777E+00
 1.178698961134333E+00
 1.178587043660547E+00
 1.178377988838807E+00
 1.178038463693037E+00
 1.177521574542803E+00
 1.176718641439711E+00
 1.177073155942070E+00
 1.177899421651119E+00
 1.178130425596666E+00
 1.179155225039893E+00
 1.178932507674232E+00
 1.179354294209243E+00
 1.179302791862545E+00
 1.179677033161774E+00
 1.179569023277329E+00
 1.179430892600826E+00
 1.179320431161189E+00
 1.179252165195076E+00
 1.179108794373929E+00
 1.178948595600017E+00
 1.178637839309054E+00
 1.178339792470692E+00
 1.178200242552848E+00
 1.177996044243275E+00
 1.177896855372928E+00
 1.177616459633419E+00
 1.177277001497836E+00
 1.178197040781474E+00
 1.177931895721678E+00
 1.177738079761395E+00
 1.177169547642620E+00
 1.176364856561023E+00
 1.176202080133269E+00
 1.177268330214339E+00
 1.177697775334363E+00
 1.178828673944450E+00
 1.178417556583123E+00
 1.178426417930677E+00
 1.179744242492876E+00
 1.179618125541583E+00
 1.179631260799964E+00
 1.179625909501475E+00
 1.179530497965455E+00
 1.179469463361923E+00
 1.179437152504183E+00
 1.179328700614400E+00
 1.179070712220816E+00
 1.178860483271158E+00
 1.178771321804215E+00
 1.178723450021881E+00
 1.178674750153390E+00
 1.178577093261140E+00
 1.178352702082731E+00
 1.177758846871539E+00
 1.178206380446172E+00
 1.178261054648861E+00
 1.178080767613101E+00
 1.177680454868650E+00
 1.176970735826840E+00
 1.178129108117058E+00
 1.179047788450342E+00
 1.179381243802582E+00
 1.179323046180096E+00
 1.179092759946522E+00
 1.179684319690840E+00
 1.179206362062557E+00
 1.178697253780971E+00
 1.178883036014674E+00
 1.178846955615233E+00
 1.178722947923973E+00
 1.179069619176202E+00
 1.178193141051252E+00
 1.178001890247165E+00
 1.177449334812374E+00
 1.177759124896112E+00
 1.177872861083102E+00
 1.177913097343566E+00
 1.178056385608043E+00
 1.178013478914157E+00
 1.178049734634723E+00
 1.177895125170216E+00
 1.177759842037743E+00
 1.177656075697671E+00
 1.177425699093247E+00
 1.176976858315060E+00
 1.178053597532319E+00
 1.178870141703473E+00
 1.179254606024511E+00
 1.179301365847549E+00
 1.179070886175041E+00
 1.180000000000000E+00
 1.180000000000000E+00
 1.180000000000000E+00
 1.180000000000000E+00
 1.180000000000000E+00
 1.180000000000000E+00
 1.180000000000000E+00
 1.180000000000000E+00
 1.180000000000000E+00
 1.180000000000000E+00
 1.180000000000000E+00
 1.180000000000000E+00
 1.180000000000000E+00
 1.180000000000000E+00
 1.180000000000000E+00
 1.180000000000000E+00
 1.180000000000000E+00
 1.180000000000000E+00
 1.180000000000000E+00
 1.180000000000000E+00
 1.180000000000000E+00
 1.180000000000000E+00
 1.180000000000000E+00
 1.180000000000000E+00
 1.180000000000000E+00
 1.180000000000000E+00
 1.180000000000000E+00
 1.180000000000000E+00
 1.180000000000000E+00
 1.180000000000000E+00
 1.180000000000000E+00
 1.180000000000000E+00
 1.180000000000000E+00
 1.180000000000000E+00
 1.180000000000000E+00
 1.180000000000000E+00
 1.180000000000000E+00
 1.180000000000000E+00
 1.179966143449761E+00
 1.179633598716062E+00
 1.179706768014665E+00
 1.179995590742519E+00
 1.179951437213883E+00
 1.180000000000000E+00
 1.180000000000000E+00
 1.180000000000000E+00
 1.180000000000000E+00
 1.180000000000000E+00
 1.180000000000000E+00
 1.180000000000000E+00
 1.180000000000000E+00
 1.180000000000000E+00
 1.180000000000000E+00
 1.179917824398939E+00
 1.180000000000000E+00
 1.180000000000000E+00
 1.180000000000000E+00
 1.180000000000000E+00
 1.180000000000000E+00
 1.180000000000000E+00
 1.180000000000000E+00
 1.180000000000000E+00
 1.180000000000000E+00
 1.180000000000000E+00
 1.180000000000000E+00
 1.180000000000000E+00
 1.180000000000000E+00
 1.180000000000000E+00
 1.179971259497174E+00
 1.180000000000000E+00
 1.180000000000000E+00
 1.180000000000000E+00
 1.180000000000000E+00
 1.180000000000000E+00
 1.180000000000000E+00
 1.180000000000000E+00
 1.180000000000000E+00
 1.180000000000000E+00
 1.180000000000000E+00
 1.180000000000000E+00
 1.180000000000000E+00
 1.180000000000000E+00
 1.180000000000000E+00
 1.180000000000000E+00
 1.180000000000000E+00
 1.180000000000000E+00
 1.180000000000000E+00
 1.180000000000000E+00
 1.179960808335449E+00
 1.180000000000000E+00
 1.180000000000000E+00
 1.180000000000000E+00
 1.180000000000000E+00
 1.180000000000000E+00
 1.180000000000000E+00
 1.180000000000000E+00
 1.180000000000000E+00
 1.180000000000000E+00
 1.180000000000000E+00
 1.180000000000000E+00
 1.180000000000000E+00
 1.180000000000000E+00
 1.180000000000000E+00
 1.180000000000000E+00
 1.180000000000000E+00
 1.180000000000000E+00
 1.179574243000820E+00
 1.180000000000000E+00
 1.180000000000000E+00
 1.180000000000000E+00
 1.180000000000000E+00
 1.180000000000000E+00
 1.180000000000000E+00
 1.180000000000000E+00
 1.180000000000000E+00
 1.180000000000000E+00
 1.180000000000000E+00
 1.180000000000000E+00
 1.180000000000000E+00
 1.180000000000000E+00
 1.180000000000000E+00
 1.180000000000000E+00
 1.180000000000000E+00
 1.180000000000000E+00
 1.180000000000000E+00
 1.180000000000000E+00
 1.179404792504298E+00
 1.180000000000000E+00
 1.180000000000000E+00
 1.180000000000000E+00
 1.180000000000000E+00
 1.180000000000000E+00
 1.179645624783782E+00
 1.180000000000000E+00
 1.180000000000000E+00
 1.180000000000000E+00
 1.180000000000000E+00
 1.180000000000000E+00
 1.180000000000000E+00
 1.180000000000000E+00
 1.180000000000000E+00
 1.180000000000000E+00
 1.180000000000000E+00
 1.180000000000000E+00
 1.179477229500494E+00
 1.180000000000000E+00
 1.180000000000000E+00
 1.180000000000000E+00
 1.180000000000000E+00
 1.180000000000000E+00
 1.180000000000000E+00
 1.180000000000000E+00
 1.180000000000000E+00
 1.180000000000000E+00
 1.179924647614410E+00
 1.180000000000000E+00
 1.180000000000000E+00
 1.180000000000000E+00
 1.180000000000000E+00
 1.180000000000000E+00
 1.180000000000000E+00
 1.180000000000000E+00
 1.180000000000000E+00
 1.180000000000000E+00
 1.180000000000000E+00
 1.180000000000000E+00
 1.180000000000000E+00
 1.180000000000000E+00
 1.180000000000000E+00
 1.179597039927430E+00
 1.180000000000000E+00
 1.180000000000000E+00
 1.180000000000000E+00
 1.180000000000000E+00
 1.180000000000000E+00
 1.180000000000000E+00
 1.180000000000000E+00
 1.179857340998043E+00
 1.180000000000000E+00
 1.180000000000000E+00
 1.180000000000000E+00
 1.180000000000000E+00
 1.180000000000000E+00
 1.180000000000000E+00
 1.180000000000000E+00
 1.180000000000000E+00
 1.180000000000000E+00
 1.180000000000000E+00
 1.180000000000000E+00
 1.180000000000000E+00
 1.180000000000000E+00
 1.180000000000000E+00
 1.180000000000000E+00
 1.180000000000000E+00
 1.180000000000000E+00
 1.180000000000000E+00
 1.180000000000000E+00
 1.180000000000000E+00
 1.179697855676528E+00
 1.180000000000000E+00
 1.180000000000000E+00
 1.180000000000000E+00
 1.180000000000000E+00
 1.180000000000000E+00
 1.180000000000000E+00
 1.180000000000000E+00
 1.180000000000000E+00
 1.180000000000000E+00
 1.180000000000000E+00
 1.179424931225425E+00
 1.180000000000000E+00
 1.180000000000000E+00
 1.180000000000000E+00
 1.180000000000000E+00
 1.180000000000000E+00
 1.180000000000000E+00
 1.180000000000000E+00
 1.180000000000000E+00
 1.180000000000000E+00
 1.180000000000000E+00
 1.180000000000000E+00
 1.180000000000000E+00
 1.180000000000000E+00
 1.180000000000000E+00
 1.180000000000000E+00
 1.180000000000000E+00
 1.179721340048280E+00
 1.180000000000000E+00
 1.180000000000000E+00
 1.180000000000000E+00
 1.180000000000000E+00
 1.180000000000000E+00
 1.180000000000000E+00
 1.180000000000000E+00
 1.180000000000000E+00
 1.180000000000000E+00
 1.179909119745851E+00
 1.180000000000000E+00
 1.180000000000000E+00
 1.180000000000000E+00
 1.180000000000000E+00
 1.180000000000000E+00
 1.180000000000000E+00
 1.180000000000000E+00
 1.180000000000000E+00
 1.179366622171371E+00
 1.180000000000000E+00
 1.180000000000000E+00
 1.180000000000000E+00
 1.180000000000000E+00
 1.180000000000000E+00
 1.180000000000000E+00
 1.180000000000000E+00
 1.180000000000000E+00
 1.180000000000000E+00
 1.180000000000000E+00
 1.180000000000000E+00
 1.180000000000000E+00
 1.180000000000000E+00
 1.180000000000000E+00
 1.180000000000000E+00
 1.180000000000000E+00
 1.180000000000000E+00
 1.179685847913175E+00
 1.180000000000000E+00
 1.180000000000000E+00
 1.180000000000000E+00
 1.180000000000000E+00
 1.180000000000000E+00
 1.180000000000000E+00
 1.180000000000000E+00
 1.180000000000000E+00
 1.180000000000000E+00
 1.180000000000000E+00
 1.179420259886135E+00
 1.180000000000000E+00
 1.180000000000000E+00
 1.180000000000000E+00
 1.180000000000000E+00
 1.180000000000000E+00
 1.180000000000000E+00
 1.180000000000000E+00
 1.180000000000000E+00
 1.180000000000000E+00
 1.180000000000000E+00
 1.180000000000000E+00
 1.180000000000000E+00
 1.180000000000000E+00
 1.180000000000000E+00
 1.180000000000000E+00
 1.180000000000000E+00
 1.180000000000000E+00
 1.180000000000000E+00
 1.180000000000000E+00
 1.180000000000000E+00
 1.180000000000000E+00
 1.180000000000000E+00
 1.180000000000000E+00
 1.180000000000000E+00
 1.179868629772249E+00
 1.180000000000000E+00
 1.180000000000000E+00
 1.180000000000000E+00
 1.180000000000000E+00
 1.180000000000000E+00
 1.180000000000000E+00
 1.180000000000000E+00
 1.180000000000000E+00
 1.180000000000000E+00
 1.180000000000000E+00
 1.180000000000000E+00
 1.180000000000000E+00
 1.180000000000000E+00
 1.180000000000000E+00
 1.180000000000000E+00
 1.180000000000000E+00
 1.180000000000000E+00
 1.180000000000000E+00
 1.180000000000000E+00
 1.180000000000000E+00
 1.180000000000000E+00
 1.180000000000000E+00
 1.180000000000000E+00
 1.180000000000000E+00
 1.180000000000000E+00
 1.180000000000000E+00
 1.180000000000000E+00
 1.180000000000000E+00
 1.180000000000000E+00
 1.180000000000000E+00
 1.179982343525873E+00
 1.180000000000000E+00
 1.180000000000000E+00
 1.180000000000000E+00
 1.180000000000000E+00
 1.180000000000000E+00
 1.180000000000000E+00
 1.180000000000000E+00
 1.180000000000000E+00
 1.180000000000000E+00
 1.180000000000000E+00
 1.180000000000000E+00
 1.180000000000000E+00
 1.180000000000000E+00
 1.180000000000000E+00
 1.180000000000000E+00
 1.180000000000000E+00
 1.180000000000000E+00
 1.180000000000000E+00
 1.180000000000000E+00
 1.180000000000000E+00
 1.180000000000000E+00
 1.180000000000000E+00
 1.180000000000000E+00
 1.180000000000000E+00
 1.180000000000000E+00
 1.180000000000000E+00
 1.180000000000000E+00
 1.180000000000000E+00
 1.180000000000000E+00
 1.180000000000000E+00
 1.180000000000000E+00
 1.180000000000000E+00
 1.180000000000000E+00
 1.180000000000000E+00
 1.180000000000000E+00
 1.180000000000000E+00
 1.180000000000000E+00
 1.180000000000000E+00
 1.180000000000000E+00
 1.180000000000000E+00
 1.180000000000000E+00
 1.180000000000000E+00
 1.180000000000000E+00
 1.180000000000000E+00
 1.180000000000000E+00
 1.180000000000000E+00
 1.180000000000000E+00
 1.180000000000000E+00
 1.180000000000000E+00
 1.180000000000000E+00
 1.180000000000000E+00
 1.180000000000000E+00
 1.180000000000000E+00
 1.180000000000000E+00
 1.180000000000000E+00
 1.180000000000000E+00
 1.180000000000000E+00
 1.180000000000000E+00
 1.180000000000000E+00
 1.180000000000000E+00
 1.180000000000000E+00
 1.180000000000000E+00
 1.180000000000000E+00
 1.180000000000000E+00
 1.180000000000000E+00
 1.180000000000000E+00
 1.180000000000000E+00
 1.180000000000000E+00
 1.180000000000000E+00
 1.180000000000000E+00
 1.179623992922307E+00
 1.179985050650768E+00
 1.180000000000000E+00
 1.180000000000000E+00
 1.180000000000000E+00
 1.180000000000000E+00
 1.180000000000000E+00
 1.180000000000000E+00
 1.180000000000000E+00
 1.180000000000000E+00
 1.180000000000000E+00
 1.180000000000000E+00
 1.180000000000000E+00
 1.180000000000000E+00
 1.180000000000000E+00
 1.180000000000000E+00
 1.180000000000000E+00
 1.180000000000000E+00
 1.180000000000000E+00
 1.180000000000000E+00
 1.180000000000000E+00
 1.180000000000000E+00
 1.180000000000000E+00
 1.180000000000000E+00
 1.180000000000000E+00
 1.180000000000000E+00
 1.180000000000000E+00
 1.180000000000000E+00
 1.180000000000000E+00
 1.180000000000000E+00
 1.180000000000000E+00
 1.180000000000000E+00
 1.180000000000000E+00
 1.180000000000000E+00
 1.180000000000000E+00
 1.180000000000000E+00
 1.180000000000000E+00
 1.180000000000000E+00
 1.180000000000000E+00
 1.180000000000000E+00
 1.180000000000000E+00
 1.180000000000000E+00
 1.180000000000000E+00
 1.180000000000000E+00
 1.180000000000000E+00
 1.180000000000000E+00
 1.180000000000000E+00
 1.180000000000000E+00
 1.180000000000000E+00
 1.180000000000000E+00
 1.180000000000000E+00
 1.180000000000000E+00
 1.180000000000000E+00
 1.180000000000000E+00
 1.180000000000000E+00
 1.180000000000000E+00
 1.180000000000000E+00
 1.180000000000000E+00
 1.180000000000000E+00
 1.180000000000000E+00
 1.180000000000000E+00
 1.180000000000000E+00
 1.180000000000000E+00
 1.180000000000000E+00
 1.180000000000000E+00
 1.180000000000000E+00
 1.180000000000000E+00
 1.180000000000000E+00
 1.180000000000000E+00
 1.180000000000000E+00
 1.180000000000000E+00
 1.180000000000000E+00
 1.180000000000000E+00
 1.180000000000000E+00
 1.180000000000000E+00
 1.180000000000000E+00
 1.180000000000000E+00
 1.180000000000000E+00
 1.180000000000000E+00
 1.180000000000000E+00
 1.180000000000000E+00
 1.180000000000000E+00
 1.180000000000000E+00
 1.180000000000000E+00
 1.180000000000000E+00
 1.180000000000000E+00
 1.180000000000000E+00
 1.180000000000000E+00
 1.180000000000000E+00
 1.180000000000000E+00
 1.180000000000000E+00
 1.180000000000000E+00
 1.180000000000000E+00
 1.180000000000000E+00
 1.180000000000000E+00
 1.180000000000000E+00
 1.180000000000000E+00
 1.180000000000000E+00
 1.180000000000000E+00
 1.180000000000000E+00
 1.180000000000000E+00
 1.180000000000000E+00
 1.180000000000000E+00
 1.180000000000000E+00
 1.180000000000000E+00
 1.180000000000000E+00
 1.180000000000000E+00
 1.180000000000000E+00
 1.180000000000000E+00
 1.180000000000000E+00
 1.180000000000000E+00
 1.180000000000000E+00
 1.180000000000000E+00
 1.180000000000000E+00
 1.180000000000000E+00
 1.180000000000000E+00
 1.180000000000000E+00
 1.180000000000000E+00
 1.180000000000000E+00
 1.180000000000000E+00
 1.180000000000000E+00
 1.180000000000000E+00
 1.180000000000000E+00
 1.180000000000000E+00
 1.180000000000000E+00
 1.180000000000000E+00
 1.180000000000000E+00
 1.180000000000000E+00
 1.180000000000000E+00
 1.180000000000000E+00
 1.180000000000000E+00
 1.180000000000000E+00
 1.180000000000000E+00
 1.180000000000000E+00
 1.180000000000000E+00
 1.180000000000000E+00
 1.180000000000000E+00
 1.180000000000000E+00
 1.180000000000000E+00
 1.180000000000000E+00
 1.180000000000000E+00
 1.180000000000000E+00
 1.180000000000000E+00
 1.180000000000000E+00
 1.180000000000000E+00
 1.180000000000000E+00
 1.180000000000000E+00
 1.180000000000000E+00
 1.180000000000000E+00
 1.180000000000000E+00
 1.180000000000000E+00
 1.179990581548528E+00
 1.180000000000000E+00
 1.180000000000000E+00
 1.180000000000000E+00
 1.180000000000000E+00
 1.180000000000000E+00
 1.180000000000000E+00
 1.180000000000000E+00
 1.180000000000000E+00
 1.180000000000000E+00
 1.180000000000000E+00
 1.179458945668793E+00
 1.179928742492497E+00
 1.180000000000000E+00
 1.180000000000000E+00
 1.180000000000000E+00
 1.180000000000000E+00
 1.180000000000000E+00
 1.180000000000000E+00
 1.180000000000000E+00
 1.180000000000000E+00
 1.180000000000000E+00
 1.180000000000000E+00
 1.180000000000000E+00
 1.180000000000000E+00
 1.180000000000000E+00
 1.180000000000000E+00
 1.180000000000000E+00
 1.180000000000000E+00
 1.180000000000000E+00
 1.180000000000000E+00
 1.180000000000000E+00
 1.179998521454344E+00
 1.180000000000000E+00
 1.180000000000000E+00
 1.180000000000000E+00
 1.180000000000000E+00
 1.180000000000000E+00
 1.180000000000000E+00
 1.180000000000000E+00
 1.180000000000000E+00
 1.180000000000000E+00
 1.180000000000000E+00
 1.180000000000000E+00
 1.180000000000000E+00
 1.180000000000000E+00
 1.180000000000000E+00
 1.180000000000000E+00
 1.180000000000000E+00
 1.180000000000000E+00
 1.180000000000000E+00
 1.180000000000000E+00
 1.180000000000000E+00
 1.180000000000000E+00
 1.180000000000000E+00
 1.180000000000000E+00
 1.180000000000000E+00
 1.180000000000000E+00
 1.180000000000000E+00
 1.180000000000000E+00
 1.180000000000000E+00
 1.180000000000000E+00
 1.180000000000000E+00
 1.180000000000000E+00
 1.180000000000000E+00
 1.180000000000000E+00
 1.180000000000000E+00
 1.180000000000000E+00
 1.180000000000000E+00
 1.180000000000000E+00
 1.180000000000000E+00
 1.180000000000000E+00
 1.180000000000000E+00
 1.180000000000000E+00
 1.180000000000000E+00
 1.180000000000000E+00
 1.180000000000000E+00
 1.180000000000000E+00
 1.180000000000000E+00
 1.180000000000000E+00
 1.180000000000000E+00
 1.180000000000000E+00
 1.180000000000000E+00
 1.180000000000000E+00
 1.180000000000000E+00
 1.180000000000000E+00
 1.180000000000000E+00
 1.180000000000000E+00
 1.180000000000000E+00
 1.180000000000000E+00
 1.180000000000000E+00
 1.180000000000000E+00
 1.179812374739939E+00
 1.179986214452051E+00
 1.180000000000000E+00
 1.180000000000000E+00
 1.180000000000000E+00
 1.180000000000000E+00
 1.180000000000000E+00
 1.180000000000000E+00
 1.180000000000000E+00
 1.180000000000000E+00
 1.180000000000000E+00
 1.180000000000000E+00
 1.180000000000000E+00
 1.180000000000000E+00
 1.180000000000000E+00
 1.180000000000000E+00
 1.180000000000000E+00
 1.180000000000000E+00
 1.180000000000000E+00
 1.180000000000000E+00
 1.180000000000000E+00
 1.180000000000000E+00
 1.180000000000000E+00
 1.180000000000000E+00
 1.180000000000000E+00
 1.180000000000000E+00
 1.180000000000000E+00
 1.180000000000000E+00
 1.180000000000000E+00
 1.180000000000000E+00
 1.180000000000000E+00
 1.179998562379549E+00
 1.180000000000000E+00
 1.180000000000000E+00
 1.180000000000000E+00
 1.180000000000000E+00
 1.180000000000000E+00
 1.180000000000000E+00
 1.180000000000000E+00
 1.180000000000000E+00
 1.180000000000000E+00
 1.180000000000000E+00
 1.180000000000000E+00
 1.180000000000000E+00
 1.179995824172372E+00
 1.180000000000000E+00
 1.180000000000000E+00
 1.180000000000000E+00
 1.180000000000000E+00
 1.180000000000000E+00
 1.180000000000000E+00
 1.180000000000000E+00
 1.180000000000000E+00
 1.180000000000000E+00
 1.180000000000000E+00
 1.180000000000000E+00
 1.180000000000000E+00
 1.179999597851282E+00
 1.180000000000000E+00
 1.180000000000000E+00
 1.180000000000000E+00
 1.180000000000000E+00
 1.180000000000000E+00
 1.180000000000000E+00
 1.180000000000000E+00
 1.180000000000000E+00
 1.180000000000000E+00
 1.180000000000000E+00
 1.180000000000000E+00
 1.180000000000000E+00
 1.180000000000000E+00
 1.180000000000000E+00
 1.180000000000000E+00
 1.180000000000000E+00
 1.179970156813467E+00
 1.180000000000000E+00
 1.180000000000000E+00
 1.180000000000000E+00
 1.180000000000000E+00
 1.180000000000000E+00
 1.180000000000000E+00
 1.180000000000000E+00
 1.180000000000000E+00
 1.180000000000000E+00
 1.180000000000000E+00
 1.180000000000000E+00
 1.180000000000000E+00
 1.180000000000000E+00
 1.180000000000000E+00
 1.180000000000000E+00
 1.179894116412163E+00
 1.180000000000000E+00
 1.180000000000000E+00
 1.180000000000000E+00
 1.180000000000000E+00
 1.179979109290393E+00
 1.180000000000000E+00
 1.180000000000000E+00
 1.180000000000000E+00
 1.180000000000000E+00
 1.180000000000000E+00
 1.180000000000000E+00
 1.180000000000000E+00
 1.180000000000000E+00
 1.180000000000000E+00
 1.180000000000000E+00
 1.180000000000000E+00
 1.180000000000000E+00
 1.180000000000000E+00
 1.180000000000000E+00
 1.180000000000000E+00
 1.180000000000000E+00
 1.180000000000000E+00
 1.180000000000000E+00
 1.180000000000000E+00
 1.180000000000000E+00
 1.180000000000000E+00
 1.180000000000000E+00
 1.179755469819928E+00
 1.180000000000000E+00
 1.180000000000000E+00
 1.180000000000000E+00
 1.180000000000000E+00
 1.180000000000000E+00
 1.180000000000000E+00
 1.180000000000000E+00
 1.180000000000000E+00