 VARIABLES = "X" "Y" "Z"
 ZONE T="pass_32"
N=33151 E=66298
 ZONETYPE=FETriangle
 DATAPACKING=BLOCK
 VARLOCATION = ([1-3]=NODAL)
 DT=(DOUBLE DOUBLE DOUBLE)
 
-8.000000000000000E-02
-7.897866861465312E-02
-7.925051433984276E-02
-7.929557700557108E-02
-7.924919161084815E-02
-7.913399005489745E-02
-7.894843455061692E-02
-7.872307780269090E-02
-7.860605433391660E-02
-7.857814210196598E-02
-7.875287000598477E-02
-7.905091521313867E-02
-7.922753676668549E-02
-7.923193217809439E-02
-7.957579180146412E-02
-7.944396694713178E-02
-7.919421451311405E-02
-7.880564939137151E-02
-7.824078908954663E-02
-7.750413440769122E-02
-7.786324875843953E-02
-7.879257011366708E-02
-7.892069323538803E-02
-7.913914140510471E-02
-7.927789095460787E-02
-7.930231673853358E-02
-7.968489808850306E-02
-7.918552240748655E-02
-7.915095294395810E-02
-7.908297446217698E-02
-7.908958419913546E-02
-7.905907656251092E-02
-7.894452398550485E-02
-7.875188213518752E-02
-7.876832815861859E-02
-7.897550106687698E-02
-7.909580095534240E-02
-7.911141602817025E-02
-7.903424853172730E-02
-7.912323502409351E-02
-7.934469968133573E-02
-7.952587205866694E-02
-7.891321969294543E-02
-7.918276479401259E-02
-7.846134332728091E-02
-7.869191234100743E-02
-7.771463728212226E-02
-7.827015105140185E-02
-7.889761702429823E-02
-7.831032034795887E-02
-7.877916173358344E-02
-8.000000000000000E-02
-7.935230813688469E-02
-7.912833387280611E-02
-7.874731338239438E-02
-7.901660075438416E-02
-8.000000000000000E-02
-7.900853051862279E-02
-7.871656448191841E-02
-7.845474077887368E-02
-7.841516193139260E-02
-7.819483592690055E-02
-7.906182127529554E-02
-8.000000000000000E-02
-7.864932553856385E-02
-8.000000000000000E-02
-8.000000000000000E-02
-7.993868322701687E-02
-8.000000000000000E-02
-7.991352184708130E-02
-7.999997615579266E-02
-7.999660555118412E-02
-7.999999559932404E-02
-7.999955275364454E-02
-8.000000000000000E-02
-8.000000000000000E-02
-7.989632719684497E-02
-8.000000000000000E-02
-7.997606939574889E-02
-7.983324019279400E-02
-7.958286448062410E-02
-8.000000000000000E-02
-7.999389501609072E-02
-8.000000000000000E-02
-8.000000000000000E-02
-8.000000000000000E-02
-8.000000000000000E-02
-8.000000000000000E-02
-7.994513562596828E-02
-8.000000000000000E-02
-8.000000000000000E-02
-8.000000000000000E-02
-8.000000000000000E-02
-8.000000000000000E-02
-8.000000000000000E-02
-8.000000000000000E-02
-8.000000000000000E-02
-8.000000000000000E-02
-8.000000000000000E-02
-8.000000000000000E-02
-8.000000000000000E-02
-7.993737944169314E-02
-8.000000000000000E-02
-8.000000000000000E-02
-8.000000000000000E-02
-8.000000000000000E-02
-8.000000000000000E-02
-7.995591337579390E-02
-8.000000000000000E-02
-8.000000000000000E-02
-8.000000000000000E-02
-8.000000000000000E-02
-7.995606092404331E-02
-8.000000000000000E-02
-8.000000000000000E-02
-8.000000000000000E-02
-8.000000000000000E-02
-8.000000000000000E-02
-8.000000000000000E-02
-8.000000000000000E-02
-8.000000000000000E-02
-8.000000000000000E-02
-7.997654935197206E-02
-8.000000000000000E-02
-8.000000000000000E-02
-8.000000000000000E-02
-8.000000000000000E-02
-8.000000000000000E-02
-7.998449024694006E-02
-8.000000000000000E-02
-8.000000000000000E-02
-8.000000000000000E-02
-8.000000000000000E-02
-8.000000000000000E-02
-8.000000000000000E-02
-8.000000000000000E-02
-8.000000000000000E-02
-8.000000000000000E-02
-7.998556321665073E-02
-8.000000000000000E-02
-8.000000000000000E-02
-8.000000000000000E-02
-8.000000000000000E-02
-8.000000000000000E-02
-8.000000000000000E-02
-8.000000000000000E-02
-8.000000000000000E-02
-7.998836897684314E-02
-8.000000000000000E-02
-8.000000000000000E-02
-8.000000000000000E-02
-8.000000000000000E-02
-8.000000000000000E-02
-8.000000000000000E-02
-8.000000000000000E-02
-8.000000000000000E-02
-8.000000000000000E-02
-8.000000000000000E-02
-7.999634309802005E-02
-8.000000000000000E-02
-8.000000000000000E-02
-8.000000000000000E-02
-8.000000000000000E-02
-8.000000000000000E-02
-8.000000000000000E-02
-8.000000000000000E-02
-8.000000000000000E-02
-8.000000000000000E-02
-8.000000000000000E-02
-8.000000000000000E-02
-8.000000000000000E-02
-8.000000000000000E-02
-8.000000000000000E-02
-8.000000000000000E-02
-8.000000000000000E-02
-8.000000000000000E-02
-8.000000000000000E-02
-8.000000000000000E-02
-8.000000000000000E-02
-8.000000000000000E-02
-8.000000000000000E-02
-8.000000000000000E-02
-8.000000000000000E-02
-8.000000000000000E-02
-7.997972069332886E-02
-8.000000000000000E-02
-8.000000000000000E-02
-8.000000000000000E-02
-8.000000000000000E-02
-8.000000000000000E-02
-8.000000000000000E-02
-8.000000000000000E-02
-8.000000000000000E-02
-8.000000000000000E-02
-8.000000000000000E-02
-8.000000000000000E-02
-8.000000000000000E-02
-8.000000000000000E-02
-8.000000000000000E-02
-7.999980922745417E-02
-8.000000000000000E-02
-8.000000000000000E-02
-8.000000000000000E-02
-8.000000000000000E-02
-8.000000000000000E-02
-8.000000000000000E-02
-8.000000000000000E-02
-8.000000000000000E-02
-8.000000000000000E-02
-8.000000000000000E-02
-8.000000000000000E-02
-8.000000000000000E-02
-8.000000000000000E-02
-8.000000000000000E-02
-8.000000000000000E-02
-8.000000000000000E-02
-8.000000000000000E-02
-8.000000000000000E-02
-8.000000000000000E-02
-8.000000000000000E-02
-8.000000000000000E-02
-8.000000000000000E-02
-8.000000000000000E-02
-8.000000000000000E-02
-8.000000000000000E-02
-8.000000000000000E-02
-8.000000000000000E-02
-8.000000000000000E-02
-8.000000000000000E-02
-8.000000000000000E-02
-8.000000000000000E-02
-8.000000000000000E-02
-8.000000000000000E-02
-8.000000000000000E-02
-8.000000000000000E-02
-8.000000000000000E-02
-8.000000000000000E-02
-8.000000000000000E-02
-8.000000000000000E-02
-8.000000000000000E-02
-8.000000000000000E-02
-8.000000000000000E-02
-7.996907883083795E-02
-8.000000000000000E-02
-8.000000000000000E-02
-8.000000000000000E-02
-8.000000000000000E-02
-8.000000000000000E-02
-8.000000000000000E-02
-7.976996163775897E-02
-8.000000000000000E-02
-8.000000000000000E-02
-8.000000000000000E-02
-8.000000000000000E-02
-8.000000000000000E-02
-8.000000000000000E-02
-8.000000000000000E-02
-8.000000000000000E-02
-8.000000000000000E-02
-8.000000000000000E-02
-8.000000000000000E-02
-8.000000000000000E-02
-7.924322031421104E-02
-8.000000000000000E-02
-8.000000000000000E-02
-8.000000000000000E-02
-8.000000000000000E-02
-8.000000000000000E-02
-8.000000000000000E-02
-7.970382905480233E-02
-8.000000000000000E-02
-7.972653419149889E-02
-8.000000000000000E-02
-8.000000000000000E-02
-8.000000000000000E-02
-8.000000000000000E-02
-8.000000000000000E-02
-8.000000000000000E-02
-8.000000000000000E-02
-8.000000000000000E-02
-8.000000000000000E-02
-8.000000000000000E-02
-8.000000000000000E-02
-8.000000000000000E-02
-7.994083669013144E-02
-7.992847981914782E-02
-8.000000000000000E-02
-8.000000000000000E-02
-8.000000000000000E-02
-8.000000000000000E-02
-8.000000000000000E-02
-7.999413585997101E-02
-8.000000000000000E-02
-8.000000000000000E-02
-8.000000000000000E-02
-8.000000000000000E-02
-8.000000000000000E-02
-8.000000000000000E-02
-8.000000000000000E-02
-8.000000000000000E-02
-8.000000000000000E-02
-8.000000000000000E-02
-8.000000000000000E-02
-8.000000000000000E-02
-8.000000000000000E-02
-8.000000000000000E-02
-8.000000000000000E-02
-8.000000000000000E-02
-8.000000000000000E-02
-8.000000000000000E-02
-8.000000000000000E-02
-8.000000000000000E-02
-8.000000000000000E-02
-8.000000000000000E-02
-7.982104915073297E-02
-8.000000000000000E-02
-8.000000000000000E-02
-8.000000000000000E-02
-8.000000000000000E-02
-8.000000000000000E-02
-8.000000000000000E-02
-8.000000000000000E-02
-8.000000000000000E-02
-8.000000000000000E-02
-8.000000000000000E-02
-8.000000000000000E-02
-7.999750742807640E-02
-8.000000000000000E-02
-8.000000000000000E-02
-8.000000000000000E-02
-8.000000000000000E-02
-8.000000000000000E-02
-8.000000000000000E-02
-8.000000000000000E-02
-8.000000000000000E-02
-8.000000000000000E-02
-8.000000000000000E-02
-8.000000000000000E-02
-7.999634946514880E-02
-8.000000000000000E-02
-8.000000000000000E-02
-8.000000000000000E-02
-8.000000000000000E-02
-8.000000000000000E-02
-8.000000000000000E-02
-8.000000000000000E-02
-8.000000000000000E-02
-8.000000000000000E-02
-8.000000000000000E-02
-8.000000000000000E-02
-8.000000000000000E-02
-8.000000000000000E-02
-8.000000000000000E-02
-8.000000000000000E-02
-8.000000000000000E-02
-8.000000000000000E-02
-8.000000000000000E-02
-8.000000000000000E-02
-8.000000000000000E-02
-8.000000000000000E-02
-7.990134227929183E-02
-8.000000000000000E-02
-8.000000000000000E-02
-8.000000000000000E-02
-8.000000000000000E-02
-8.000000000000000E-02
-8.000000000000000E-02
-8.000000000000000E-02
-8.000000000000000E-02
-8.000000000000000E-02
-8.000000000000000E-02
-8.000000000000000E-02
-8.000000000000000E-02
-8.000000000000000E-02
-8.000000000000000E-02
-8.000000000000000E-02
-8.000000000000000E-02
-8.000000000000000E-02
-8.000000000000000E-02
-8.000000000000000E-02
-8.000000000000000E-02
-8.000000000000000E-02
-8.000000000000000E-02
-8.000000000000000E-02
-8.000000000000000E-02
-8.000000000000000E-02
-8.000000000000000E-02
-8.000000000000000E-02
-8.000000000000000E-02
-8.000000000000000E-02
-8.000000000000000E-02
-8.000000000000000E-02
-8.000000000000000E-02
-8.000000000000000E-02
-8.000000000000000E-02
-7.995959003146560E-02
 1.179531915395623E+00
 1.179763673057572E+00
 1.179743055489224E+00
 1.179638593407211E+00
 1.179480745876740E+00
 1.179345378896268E+00
 1.179210917145176E+00
 1.178832905831796E+00
 1.179320370853713E+00
 1.178908399040831E+00
 1.178310052405203E+00
 1.178937379760928E+00
 1.180000000000000E+00
 1.178028306772350E+00
 1.178774289007982E+00
 1.178578078793281E+00
 1.178073431048388E+00
 1.180000000000000E+00
 1.177886487751488E+00
 1.180000000000000E+00
 1.177810284617511E+00
 1.178979586348272E+00
 1.178346521780272E+00
 1.178702192460091E+00
 1.178872930760373E+00
 1.179256527753838E+00
 1.179649468175970E+00
 1.179032416324991E+00
 1.179346782005070E+00
 1.178894107207449E+00
 1.179137364372179E+00
 1.179137916381171E+00
 1.179044289609319E+00
 1.178775195230248E+00
 1.178141036265641E+00
 1.178310443143203E+00
 1.178316267374373E+00
 1.178429194961331E+00
 1.178708793636672E+00
 1.178945967340011E+00
 1.179037617938249E+00
 1.178939710326023E+00
 1.180000000000000E+00
 1.178463849678704E+00
 1.178000366966441E+00
 1.177314295856021E+00
 1.177867283485203E+00
 1.178329800923014E+00
 1.178385552480307E+00
 1.179245459793794E+00
 1.179016054273488E+00
 1.179383566512596E+00
 1.179333445640907E+00
 1.179673527742035E+00
 1.179582436265903E+00
 1.179447300475146E+00
 1.179347564077410E+00
 1.179300908165872E+00
 1.179187605338765E+00
 1.179079516570882E+00
 1.178803156579425E+00
 1.178545499842434E+00
 1.178437914964125E+00
 1.178241265478274E+00
 1.178147880291137E+00
 1.177875239065123E+00
 1.177628387699062E+00
 1.178470711081198E+00
 1.178248318240164E+00
 1.178121241641794E+00
 1.177599127084270E+00
 1.176938810692915E+00
 1.177046326070507E+00
 1.177890327091057E+00
 1.178099074424365E+00
 1.179047654289647E+00
 1.178619384293358E+00
 1.178612661835636E+00
 1.179714718705427E+00
 1.179600469503743E+00
 1.179640159697448E+00
 1.179645725161178E+00
 1.179545789194552E+00
 1.179485096773190E+00
 1.179472296066520E+00
 1.179396258910624E+00
 1.179171612539562E+00
 1.178995506525052E+00
 1.178962242820804E+00
 1.178968304002808E+00
 1.180000000000000E+00
 1.178929724519172E+00
 1.178774928593498E+00
 1.178300611433954E+00
 1.178720247179682E+00
 1.180000000000000E+00
 1.178625270563498E+00
 1.178301348347479E+00
 1.177780931520864E+00
 1.180000000000000E+00
 1.179241912513281E+00
 1.179442481795512E+00
 1.180000000000000E+00
 1.179142061043311E+00
 1.179644399012256E+00
 1.179232637421697E+00
 1.178829049238539E+00
 1.179036161877152E+00
 1.179038359347105E+00
 1.178907614307952E+00
 1.179211650380413E+00
 1.178410230115843E+00
 1.178270881822730E+00
 1.177811382645561E+00
 1.178142403169830E+00
 1.178229258795690E+00
 1.178277778156998E+00
 1.178415447238583E+00
 1.180000000000000E+00
 1.180000000000000E+00
 1.178237233380021E+00
 1.178111648642648E+00
 1.178042819254553E+00
 1.177887545910256E+00
 1.177595721729733E+00
 1.178405120430836E+00
 1.179045767567373E+00
 1.180000000000000E+00
 1.179326076081249E+00
 1.179128320878845E+00
 1.180000000000000E+00
 1.180000000000000E+00
 1.180000000000000E+00
 1.180000000000000E+00
 1.180000000000000E+00
 1.180000000000000E+00
 1.180000000000000E+00
 1.180000000000000E+00
 1.180000000000000E+00
 1.180000000000000E+00
 1.180000000000000E+00
 1.180000000000000E+00
 1.180000000000000E+00
 1.180000000000000E+00
 1.180000000000000E+00
 1.180000000000000E+00
 1.180000000000000E+00
 1.180000000000000E+00
 1.180000000000000E+00
 1.180000000000000E+00
 1.180000000000000E+00
 1.180000000000000E+00
 1.180000000000000E+00
 1.180000000000000E+00
 1.180000000000000E+00
 1.180000000000000E+00
 1.180000000000000E+00
 1.180000000000000E+00
 1.180000000000000E+00
 1.180000000000000E+00
 1.180000000000000E+00
 1.180000000000000E+00
 1.180000000000000E+00
 1.180000000000000E+00
 1.180000000000000E+00
 1.180000000000000E+00
 1.180000000000000E+00
 1.180000000000000E+00
 1.179949677647121E+00
 1.179710532631525E+00
 1.179686987475791E+00
 1.179983917473144E+00
 1.179930196332356E+00
 1.179999785122919E+00
 1.180000000000000E+00
 1.180000000000000E+00
 1.180000000000000E+00
 1.180000000000000E+00
 1.180000000000000E+00
 1.180000000000000E+00
 1.180000000000000E+00
 1.180000000000000E+00
 1.180000000000000E+00
 1.179908124153697E+00
 1.180000000000000E+00
 1.180000000000000E+00
 1.180000000000000E+00
 1.180000000000000E+00
 1.180000000000000E+00
 1.180000000000000E+00
 1.180000000000000E+00
 1.180000000000000E+00
 1.180000000000000E+00
 1.180000000000000E+00
 1.180000000000000E+00
 1.180000000000000E+00
 1.180000000000000E+00
 1.180000000000000E+00
 1.179970798409112E+00
 1.180000000000000E+00
 1.180000000000000E+00
 1.180000000000000E+00
 1.180000000000000E+00
 1.180000000000000E+00
 1.180000000000000E+00
 1.180000000000000E+00
 1.180000000000000E+00
 1.180000000000000E+00
 1.180000000000000E+00
 1.180000000000000E+00
 1.180000000000000E+00
 1.180000000000000E+00
 1.180000000000000E+00
 1.180000000000000E+00
 1.180000000000000E+00
 1.180000000000000E+00
 1.180000000000000E+00
 1.180000000000000E+00
 1.179967604869083E+00
 1.180000000000000E+00
 1.180000000000000E+00
 1.180000000000000E+00
 1.180000000000000E+00
 1.180000000000000E+00
 1.180000000000000E+00
 1.180000000000000E+00
 1.180000000000000E+00
 1.180000000000000E+00
 1.180000000000000E+00
 1.180000000000000E+00
 1.180000000000000E+00
 1.180000000000000E+00
 1.180000000000000E+00
 1.180000000000000E+00
 1.180000000000000E+00
 1.180000000000000E+00
 1.179639183957583E+00
 1.180000000000000E+00
 1.180000000000000E+00
 1.180000000000000E+00
 1.180000000000000E+00
 1.180000000000000E+00
 1.180000000000000E+00
 1.180000000000000E+00
 1.180000000000000E+00
 1.180000000000000E+00
 1.180000000000000E+00
 1.180000000000000E+00
 1.180000000000000E+00
 1.180000000000000E+00
 1.180000000000000E+00
 1.180000000000000E+00
 1.180000000000000E+00
 1.180000000000000E+00
 1.180000000000000E+00
 1.180000000000000E+00
 1.179531943027830E+00
 1.180000000000000E+00
 1.180000000000000E+00
 1.180000000000000E+00
 1.180000000000000E+00
 1.180000000000000E+00
 1.179702022210072E+00
 1.180000000000000E+00
 1.180000000000000E+00
 1.180000000000000E+00
 1.180000000000000E+00
 1.180000000000000E+00
 1.180000000000000E+00
 1.180000000000000E+00
 1.180000000000000E+00
 1.180000000000000E+00
 1.180000000000000E+00
 1.180000000000000E+00
 1.179515986918364E+00
 1.180000000000000E+00
 1.180000000000000E+00
 1.180000000000000E+00
 1.180000000000000E+00
 1.180000000000000E+00
 1.180000000000000E+00
 1.180000000000000E+00
 1.180000000000000E+00
 1.180000000000000E+00
 1.180000000000000E+00
 1.180000000000000E+00
 1.180000000000000E+00
 1.180000000000000E+00
 1.180000000000000E+00
 1.180000000000000E+00
 1.180000000000000E+00
 1.180000000000000E+00
 1.180000000000000E+00
 1.180000000000000E+00
 1.180000000000000E+00
 1.180000000000000E+00
 1.180000000000000E+00
 1.180000000000000E+00
 1.180000000000000E+00
 1.179610446904549E+00
 1.180000000000000E+00
 1.180000000000000E+00
 1.180000000000000E+00
 1.180000000000000E+00
 1.180000000000000E+00
 1.180000000000000E+00
 1.180000000000000E+00
 1.179854070013767E+00
 1.180000000000000E+00
 1.180000000000000E+00
 1.180000000000000E+00
 1.180000000000000E+00
 1.180000000000000E+00
 1.180000000000000E+00
 1.180000000000000E+00
 1.180000000000000E+00
 1.180000000000000E+00
 1.180000000000000E+00
 1.180000000000000E+00
 1.180000000000000E+00
 1.180000000000000E+00
 1.180000000000000E+00
 1.180000000000000E+00
 1.180000000000000E+00
 1.180000000000000E+00
 1.180000000000000E+00
 1.180000000000000E+00
 1.180000000000000E+00
 1.179714823673799E+00
 1.180000000000000E+00
 1.180000000000000E+00
 1.180000000000000E+00
 1.180000000000000E+00
 1.180000000000000E+00
 1.180000000000000E+00
 1.180000000000000E+00
 1.180000000000000E+00
 1.180000000000000E+00
 1.180000000000000E+00
 1.179467009315462E+00
 1.180000000000000E+00
 1.180000000000000E+00
 1.180000000000000E+00
 1.180000000000000E+00
 1.180000000000000E+00
 1.180000000000000E+00
 1.180000000000000E+00
 1.180000000000000E+00
 1.180000000000000E+00
 1.180000000000000E+00
 1.180000000000000E+00
 1.180000000000000E+00
 1.180000000000000E+00
 1.180000000000000E+00
 1.180000000000000E+00
 1.180000000000000E+00
 1.179736763201645E+00
 1.180000000000000E+00
 1.180000000000000E+00
 1.180000000000000E+00
 1.180000000000000E+00
 1.180000000000000E+00
 1.180000000000000E+00
 1.180000000000000E+00
 1.180000000000000E+00
 1.180000000000000E+00
 1.179940852345009E+00
 1.180000000000000E+00
 1.180000000000000E+00
 1.180000000000000E+00
 1.180000000000000E+00
 1.180000000000000E+00
 1.180000000000000E+00
 1.180000000000000E+00
 1.180000000000000E+00
 1.179431683070090E+00
 1.180000000000000E+00
 1.180000000000000E+00
 1.180000000000000E+00
 1.180000000000000E+00
 1.180000000000000E+00
 1.180000000000000E+00
 1.180000000000000E+00
 1.180000000000000E+00
 1.180000000000000E+00
 1.180000000000000E+00
 1.180000000000000E+00
 1.180000000000000E+00
 1.180000000000000E+00
 1.180000000000000E+00
 1.180000000000000E+00
 1.180000000000000E+00
 1.180000000000000E+00
 1.179718857021360E+00
 1.180000000000000E+00
 1.180000000000000E+00
 1.180000000000000E+00
 1.180000000000000E+00
 1.180000000000000E+00
 1.180000000000000E+00
 1.180000000000000E+00
 1.180000000000000E+00
 1.180000000000000E+00
 1.180000000000000E+00
 1.179485764847745E+00
 1.180000000000000E+00
 1.180000000000000E+00
 1.180000000000000E+00
 1.180000000000000E+00
 1.180000000000000E+00
 1.180000000000000E+00
 1.180000000000000E+00
 1.180000000000000E+00
 1.180000000000000E+00
 1.180000000000000E+00
 1.180000000000000E+00
 1.180000000000000E+00
 1.180000000000000E+00
 1.180000000000000E+00
 1.180000000000000E+00
 1.180000000000000E+00
 1.180000000000000E+00
 1.180000000000000E+00
 1.180000000000000E+00
 1.180000000000000E+00
 1.180000000000000E+00
 1.180000000000000E+00
 1.180000000000000E+00
 1.180000000000000E+00
 1.179872461372872E+00
 1.180000000000000E+00
 1.180000000000000E+00
 1.180000000000000E+00
 1.180000000000000E+00
 1.180000000000000E+00
 1.180000000000000E+00
 1.180000000000000E+00
 1.180000000000000E+00
 1.180000000000000E+00
 1.180000000000000E+00
 1.180000000000000E+00
 1.180000000000000E+00
 1.179999983133318E+00
 1.180000000000000E+00
 1.180000000000000E+00
 1.180000000000000E+00
 1.180000000000000E+00
 1.180000000000000E+00
 1.180000000000000E+00
 1.180000000000000E+00
 1.180000000000000E+00
 1.180000000000000E+00
 1.180000000000000E+00
 1.180000000000000E+00
 1.180000000000000E+00
 1.180000000000000E+00
 1.180000000000000E+00
 1.180000000000000E+00
 1.180000000000000E+00
 1.180000000000000E+00
 1.179967737970208E+00
 1.180000000000000E+00
 1.180000000000000E+00
 1.180000000000000E+00
 1.180000000000000E+00
 1.180000000000000E+00
 1.180000000000000E+00
 1.180000000000000E+00
 1.180000000000000E+00
 1.180000000000000E+00
 1.180000000000000E+00
 1.180000000000000E+00
 1.180000000000000E+00
 1.180000000000000E+00
 1.180000000000000E+00
 1.180000000000000E+00
 1.180000000000000E+00
 1.179999270263900E+00
 1.180000000000000E+00
 1.180000000000000E+00
 1.180000000000000E+00
 1.180000000000000E+00
 1.180000000000000E+00
 1.180000000000000E+00
 1.180000000000000E+00
 1.180000000000000E+00
 1.180000000000000E+00
 1.180000000000000E+00
 1.180000000000000E+00
 1.180000000000000E+00
 1.180000000000000E+00
 1.180000000000000E+00
 1.180000000000000E+00
 1.180000000000000E+00
 1.180000000000000E+00
 1.180000000000000E+00
 1.180000000000000E+00
 1.180000000000000E+00
 1.180000000000000E+00
 1.180000000000000E+00
 1.180000000000000E+00
 1.180000000000000E+00
 1.180000000000000E+00
 1.180000000000000E+00
 1.179998751760645E+00
 1.180000000000000E+00
 1.180000000000000E+00
 1.180000000000000E+00
 1.180000000000000E+00
 1.180000000000000E+00
 1.180000000000000E+00
 1.180000000000000E+00
 1.180000000000000E+00
 1.180000000000000E+00
 1.180000000000000E+00
 1.180000000000000E+00
 1.180000000000000E+00
 1.180000000000000E+00
 1.180000000000000E+00
 1.180000000000000E+00
 1.180000000000000E+00
 1.180000000000000E+00
 1.180000000000000E+00
 1.180000000000000E+00
 1.180000000000000E+00
 1.180000000000000E+00
 1.180000000000000E+00
 1.180000000000000E+00
 1.180000000000000E+00
 1.180000000000000E+00
 1.180000000000000E+00
 1.179719927905464E+00
 1.179986443143233E+00
 1.180000000000000E+00
 1.180000000000000E+00
 1.180000000000000E+00
 1.180000000000000E+00
 1.180000000000000E+00
 1.180000000000000E+00
 1.180000000000000E+00
 1.180000000000000E+00
 1.180000000000000E+00
 1.180000000000000E+00
 1.180000000000000E+00
 1.180000000000000E+00
 1.180000000000000E+00
 1.180000000000000E+00
 1.180000000000000E+00
 1.180000000000000E+00
 1.180000000000000E+00
 1.180000000000000E+00
 1.180000000000000E+00
 1.180000000000000E+00
 1.180000000000000E+00
 1.180000000000000E+00
 1.180000000000000E+00
 1.180000000000000E+00
 1.180000000000000E+00
 1.180000000000000E+00
 1.180000000000000E+00
 1.180000000000000E+00
 1.180000000000000E+00
 1.180000000000000E+00
 1.180000000000000E+00
 1.180000000000000E+00
 1.180000000000000E+00
 1.180000000000000E+00
 1.180000000000000E+00
 1.180000000000000E+00
 1.180000000000000E+00
 1.180000000000000E+00
 1.180000000000000E+00
 1.180000000000000E+00
 1.180000000000000E+00
 1.180000000000000E+00
 1.180000000000000E+00
 1.180000000000000E+00
 1.180000000000000E+00
 1.180000000000000E+00
 1.180000000000000E+00
 1.180000000000000E+00
 1.180000000000000E+00
 1.180000000000000E+00
 1.180000000000000E+00
 1.180000000000000E+00
 1.180000000000000E+00
 1.180000000000000E+00
 1.180000000000000E+00
 1.180000000000000E+00
 1.180000000000000E+00
 1.180000000000000E+00
 1.180000000000000E+00
 1.180000000000000E+00
 1.180000000000000E+00
 1.180000000000000E+00
 1.180000000000000E+00
 1.180000000000000E+00
 1.180000000000000E+00
 1.180000000000000E+00
 1.180000000000000E+00
 1.180000000000000E+00
 1.180000000000000E+00
 1.180000000000000E+00
 1.180000000000000E+00
 1.180000000000000E+00
 1.180000000000000E+00
 1.180000000000000E+00
 1.180000000000000E+00
 1.180000000000000E+00
 1.180000000000000E+00
 1.180000000000000E+00
 1.180000000000000E+00
 1.180000000000000E+00
 1.180000000000000E+00
 1.180000000000000E+00
 1.180000000000000E+00
 1.180000000000000E+00
 1.180000000000000E+00
 1.180000000000000E+00
 1.180000000000000E+00
 1.180000000000000E+00
 1.180000000000000E+00
 1.180000000000000E+00
 1.180000000000000E+00
 1.180000000000000E+00
 1.180000000000000E+00
 1.180000000000000E+00
 1.180000000000000E+00
 1.180000000000000E+00
 1.180000000000000E+00
 1.180000000000000E+00
 1.180000000000000E+00
 1.180000000000000E+00
 1.180000000000000E+00
 1.180000000000000E+00
 1.180000000000000E+00
 1.180000000000000E+00
 1.180000000000000E+00
 1.180000000000000E+00
 1.180000000000000E+00
 1.180000000000000E+00
 1.180000000000000E+00
 1.180000000000000E+00
 1.180000000000000E+00
 1.180000000000000E+00
 1.180000000000000E+00
 1.180000000000000E+00
 1.180000000000000E+00
 1.180000000000000E+00
 1.180000000000000E+00
 1.180000000000000E+00
 1.180000000000000E+00
 1.180000000000000E+00
 1.180000000000000E+00
 1.180000000000000E+00
 1.180000000000000E+00
 1.180000000000000E+00
 1.180000000000000E+00
 1.180000000000000E+00
 1.180000000000000E+00
 1.180000000000000E+00
 1.180000000000000E+00
 1.180000000000000E+00
 1.180000000000000E+00
 1.180000000000000E+00
 1.180000000000000E+00
 1.180000000000000E+00
 1.180000000000000E+00
 1.180000000000000E+00
 1.180000000000000E+00
 1.180000000000000E+00
 1.180000000000000E+00
 1.180000000000000E+00
 1.180000000000000E+00
 1.180000000000000E+00
 1.180000000000000E+00
 1.180000000000000E+00
 1.180000000000000E+00
 1.180000000000000E+00
 1.180000000000000E+00
 1.180000000000000E+00
 1.180000000000000E+00
 1.179981324691771E+00
 1.180000000000000E+00
 1.180000000000000E+00
 1.180000000000000E+00
 1.180000000000000E+00
 1.180000000000000E+00
 1.180000000000000E+00
 1.180000000000000E+00
 1.180000000000000E+00
 1.180000000000000E+00
 1.180000000000000E+00
 1.179549755148599E+00
 1.179927941713582E+00
 1.180000000000000E+00
 1.180000000000000E+00
 1.180000000000000E+00
 1.180000000000000E+00
 1.180000000000000E+00
 1.180000000000000E+00
 1.180000000000000E+00
 1.180000000000000E+00
 1.180000000000000E+00
 1.180000000000000E+00
 1.180000000000000E+00
 1.180000000000000E+00
 1.180000000000000E+00
 1.180000000000000E+00
 1.180000000000000E+00
 1.180000000000000E+00
 1.180000000000000E+00
 1.180000000000000E+00
 1.180000000000000E+00
 1.179995071546700E+00
 1.180000000000000E+00
 1.180000000000000E+00
 1.180000000000000E+00
 1.180000000000000E+00
 1.180000000000000E+00
 1.180000000000000E+00
 1.180000000000000E+00
 1.180000000000000E+00
 1.180000000000000E+00
 1.180000000000000E+00
 1.180000000000000E+00
 1.180000000000000E+00
 1.180000000000000E+00
 1.180000000000000E+00
 1.180000000000000E+00
 1.179999592582916E+00
 1.180000000000000E+00
 1.180000000000000E+00
 1.180000000000000E+00
 1.180000000000000E+00
 1.180000000000000E+00
 1.180000000000000E+00
 1.180000000000000E+00
 1.180000000000000E+00
 1.180000000000000E+00
 1.180000000000000E+00
 1.180000000000000E+00
 1.180000000000000E+00
 1.180000000000000E+00
 1.180000000000000E+00
 1.180000000000000E+00
 1.180000000000000E+00
 1.180000000000000E+00
 1.180000000000000E+00
 1.180000000000000E+00
 1.180000000000000E+00
 1.180000000000000E+00
 1.180000000000000E+00
 1.180000000000000E+00
 1.180000000000000E+00
 1.180000000000000E+00
 1.180000000000000E+00
 1.180000000000000E+00
 1.180000000000000E+00
 1.180000000000000E+00
 1.180000000000000E+00
 1.180000000000000E+00
 1.180000000000000E+00
 1.180000000000000E+00
 1.180000000000000E+00
 1.180000000000000E+00
 1.180000000000000E+00
 1.180000000000000E+00
 1.180000000000000E+00
 1.180000000000000E+00
 1.180000000000000E+00
 1.180000000000000E+00
 1.180000000000000E+00
 1.180000000000000E+00
 1.179839519813416E+00
 1.179985128453987E+00
 1.180000000000000E+00
 1.180000000000000E+00
 1.180000000000000E+00
 1.180000000000000E+00
 1.180000000000000E+00
 1.180000000000000E+00
 1.180000000000000E+00
 1.180000000000000E+00
 1.180000000000000E+00
 1.180000000000000E+00
 1.180000000000000E+00
 1.180000000000000E+00
 1.180000000000000E+00
 1.180000000000000E+00
 1.180000000000000E+00
 1.180000000000000E+00
 1.180000000000000E+00
 1.180000000000000E+00
 1.180000000000000E+00
 1.180000000000000E+00
 1.180000000000000E+00
 1.180000000000000E+00
 1.180000000000000E+00
 1.180000000000000E+00
 1.180000000000000E+00
 1.180000000000000E+00
 1.180000000000000E+00
 1.180000000000000E+00
 1.180000000000000E+00
 1.180000000000000E+00
 1.180000000000000E+00
 1.180000000000000E+00
 1.180000000000000E+00
 1.180000000000000E+00
 1.180000000000000E+00
 1.180000000000000E+00
 1.180000000000000E+00
 1.180000000000000E+00
 1.180000000000000E+00
 1.180000000000000E+00
 1.180000000000000E+00
 1.180000000000000E+00
 1.180000000000000E+00
 1.180000000000000E+00
 1.180000000000000E+00
 1.180000000000000E+00
 1.180000000000000E+00
 1.180000000000000E+00
 1.180000000000000E+00
 1.180000000000000E+00
 1.180000000000000E+00
 1.180000000000000E+00
 1.180000000000000E+00
 1.180000000000000E+00
 1.180000000000000E+00
 1.179997060241736E+00
 1.180000000000000E+00
 1.180000000000000E+00
 1.180000000000000E+00
 1.180000000000000E+00
 1.180000000000000E+00
 1.180000000000000E+00
 1.180000000000000E+00
 1.180000000000000E+00
 1.180000000000000E+00
 1.180000000000000E+00
 1.180000000000000E+00
 1.180000000000000E+00
 1.180000000000000E+00
 1.180000000000000E+00
 1.180000000000000E+00
 1.180000000000000E+00
 1.179988060767533E+00
 1.180000000000000E+00
 1.180000000000000E+00
 1.180000000000000E+00
 1.180000000000000E+00
 1.180000000000000E+00
 1.180000000000000E+00
 1.180000000000000E+00
 1.180000000000000E+00
 1.180000000000000E+00
 1.180000000000000E+00
 1.180000000000000E+00
 1.180000000000000E+00
 1.180000000000000E+00
 1.180000000000000E+00
 1.180000000000000E+00
 1.179931190324259E+00
 1.180000000000000E+00
 1.180000000000000E+00
 1.180000000000000E+00
 1.180000000000000E+00
 1.179973356642816E+00
 1.180000000000000E+00
 1.180000000000000E+00
 1.180000000000000E+00
 1.180000000000000E+00
 1.180000000000000E+00
 1.180000000000000E+00
 1.180000000000000E+00
 1.180000000000000E+00
 1.180000000000000E+00
 1.180000000000000E+00
 1.180000000000000E+00
 1.180000000000000E+00
 1.180000000000000E+00
 1.180000000000000E+00
 1.180000000000000E+00
 1.180000000000000E+00
 1.180000000000000E+00
 1.180000000000000E+00
 1.180000000000000E+00
 1.180000000000000E+00
 1.180000000000000E+00
 1.180000000000000E+00
 1.179816838382849E+00
 1.180000000000000E+00
 1.180000000000000E+00
 1.180000000000000E+00
 1.180000000000000E+00
 1.180000000000000E+00
 1.180000000000000E+00
 1.180000000000000E+00
 1.180000000000000E+00