 VARIABLES = "X" "Y" "Z"
 ZONE T="pass_34"
N=33151 E=66298
 ZONETYPE=FETriangle
 DATAPACKING=BLOCK
 VARLOCATION = ([1-3]=NODAL)
 DT=(DOUBLE DOUBLE DOUBLE)
 
-7.876910929158794E-02
-7.828153845052142E-02
-7.863126994291766E-02
-7.869102710906553E-02
-7.863211679690689E-02
-7.848665474097341E-02
-7.824205230644826E-02
-7.795896757060056E-02
-7.785025998419887E-02
-7.787362023644229E-02
-7.807976013082113E-02
-7.839072453478718E-02
-7.868674755551307E-02
-7.867541726646103E-02
-7.914116251053231E-02
-7.892847286098900E-02
-7.855140710863649E-02
-7.804639202767075E-02
-7.739667088129162E-02
-7.657025958292246E-02
-7.694556502098729E-02
-7.810326573295873E-02
-7.808469378418426E-02
-7.836427468338636E-02
-7.861417707112181E-02
-7.872356197329627E-02
-7.932925289968611E-02
-7.864186000850629E-02
-7.861064969258331E-02
-7.853619977949672E-02
-7.852178207068648E-02
-7.844685801875838E-02
-7.822854813457192E-02
-7.785818276203199E-02
-7.780230557452862E-02
-7.811864484298597E-02
-7.831283281030738E-02
-7.837069649405151E-02
-7.832986648014492E-02
-7.856294544293083E-02
-7.886229509736474E-02
-7.908177348681195E-02
-7.822804595354574E-02
-7.858653703872112E-02
-7.767607114187143E-02
-7.790654346038231E-02
-7.664433849288536E-02
-7.711590902027508E-02
-7.790130717963346E-02
-7.718402933312676E-02
-7.783544735436082E-02
-7.833406150384373E-02
-7.890071860418071E-02
-7.859983125212226E-02
-7.808034931970136E-02
-7.834957226845277E-02
-7.835043648892379E-02
-7.822719081300651E-02
-7.787738602849661E-02
-7.753264032776551E-02
-7.738997992714541E-02
-7.709125866001854E-02
-7.823507944746165E-02
-7.800172857613667E-02
-7.783663031893044E-02
-8.000000000000000E-02
-8.000000000000000E-02
-7.979919107212040E-02
-8.000000000000000E-02
-7.972929658611212E-02
-7.996002839059627E-02
-7.991713941072993E-02
-7.994699300577968E-02
-7.994617782801136E-02
-8.000000000000000E-02
-7.980022360386457E-02
-7.966302821625613E-02
-7.950321577573706E-02
-7.985922943130173E-02
-7.959103229098834E-02
-7.917235445655443E-02
-8.000000000000000E-02
-7.992185807964657E-02
-8.000000000000000E-02
-7.989272472882658E-02
-7.998975105619310E-02
-8.000000000000000E-02
-7.998461257492447E-02
-7.974044227690900E-02
-8.000000000000000E-02
-8.000000000000000E-02
-8.000000000000000E-02
-8.000000000000000E-02
-8.000000000000000E-02
-8.000000000000000E-02
-8.000000000000000E-02
-7.995903421589998E-02
-8.000000000000000E-02
-8.000000000000000E-02
-8.000000000000000E-02
-8.000000000000000E-02
-7.977042009376151E-02
-8.000000000000000E-02
-8.000000000000000E-02
-8.000000000000000E-02
-8.000000000000000E-02
-7.974706400223841E-02
-7.983555306652114E-02
-7.999144777901543E-02
-8.000000000000000E-02
-8.000000000000000E-02
-8.000000000000000E-02
-7.984126027757051E-02
-8.000000000000000E-02
-8.000000000000000E-02
-8.000000000000000E-02
-8.000000000000000E-02
-8.000000000000000E-02
-8.000000000000000E-02
-8.000000000000000E-02
-8.000000000000000E-02
-8.000000000000000E-02
-7.987931899649733E-02
-8.000000000000000E-02
-8.000000000000000E-02
-8.000000000000000E-02
-8.000000000000000E-02
-8.000000000000000E-02
-7.989037299811341E-02
-8.000000000000000E-02
-8.000000000000000E-02
-8.000000000000000E-02
-8.000000000000000E-02
-8.000000000000000E-02
-8.000000000000000E-02
-8.000000000000000E-02
-8.000000000000000E-02
-8.000000000000000E-02
-7.988109337771598E-02
-8.000000000000000E-02
-8.000000000000000E-02
-8.000000000000000E-02
-8.000000000000000E-02
-8.000000000000000E-02
-8.000000000000000E-02
-8.000000000000000E-02
-8.000000000000000E-02
-7.987743759176333E-02
-8.000000000000000E-02
-8.000000000000000E-02
-8.000000000000000E-02
-8.000000000000000E-02
-8.000000000000000E-02
-8.000000000000000E-02
-8.000000000000000E-02
-8.000000000000000E-02
-8.000000000000000E-02
-8.000000000000000E-02
-7.990498925897747E-02
-8.000000000000000E-02
-8.000000000000000E-02
-8.000000000000000E-02
-8.000000000000000E-02
-8.000000000000000E-02
-8.000000000000000E-02
-8.000000000000000E-02
-7.993817078187355E-02
-8.000000000000000E-02
-8.000000000000000E-02
-8.000000000000000E-02
-8.000000000000000E-02
-8.000000000000000E-02
-8.000000000000000E-02
-8.000000000000000E-02
-8.000000000000000E-02
-8.000000000000000E-02
-8.000000000000000E-02
-8.000000000000000E-02
-8.000000000000000E-02
-8.000000000000000E-02
-7.995319101583548E-02
-8.000000000000000E-02
-8.000000000000000E-02
-8.000000000000000E-02
-7.987872078586754E-02
-8.000000000000000E-02
-8.000000000000000E-02
-8.000000000000000E-02
-8.000000000000000E-02
-8.000000000000000E-02
-8.000000000000000E-02
-8.000000000000000E-02
-8.000000000000000E-02
-8.000000000000000E-02
-8.000000000000000E-02
-8.000000000000000E-02
-8.000000000000000E-02
-8.000000000000000E-02
-8.000000000000000E-02
-7.993896726758210E-02
-8.000000000000000E-02
-8.000000000000000E-02
-8.000000000000000E-02
-8.000000000000000E-02
-8.000000000000000E-02
-8.000000000000000E-02
-8.000000000000000E-02
-8.000000000000000E-02
-8.000000000000000E-02
-8.000000000000000E-02
-8.000000000000000E-02
-8.000000000000000E-02
-8.000000000000000E-02
-8.000000000000000E-02
-8.000000000000000E-02
-8.000000000000000E-02
-8.000000000000000E-02
-8.000000000000000E-02
-8.000000000000000E-02
-8.000000000000000E-02
-8.000000000000000E-02
-7.999955167935788E-02
-8.000000000000000E-02
-8.000000000000000E-02
-8.000000000000000E-02
-8.000000000000000E-02
-8.000000000000000E-02
-7.999384620959681E-02
-8.000000000000000E-02
-7.997071544922817E-02
-8.000000000000000E-02
-8.000000000000000E-02
-8.000000000000000E-02
-8.000000000000000E-02
-8.000000000000000E-02
-8.000000000000000E-02
-8.000000000000000E-02
-8.000000000000000E-02
-8.000000000000000E-02
-8.000000000000000E-02
-8.000000000000000E-02
-8.000000000000000E-02
-7.983309515493148E-02
-8.000000000000000E-02
-8.000000000000000E-02
-8.000000000000000E-02
-8.000000000000000E-02
-8.000000000000000E-02
-8.000000000000000E-02
-7.947228337563519E-02
-8.000000000000000E-02
-8.000000000000000E-02
-8.000000000000000E-02
-8.000000000000000E-02
-8.000000000000000E-02
-8.000000000000000E-02
-8.000000000000000E-02
-8.000000000000000E-02
-8.000000000000000E-02
-8.000000000000000E-02
-8.000000000000000E-02
-7.996961761761055E-02
-7.871963930959892E-02
-8.000000000000000E-02
-8.000000000000000E-02
-8.000000000000000E-02
-8.000000000000000E-02
-8.000000000000000E-02
-8.000000000000000E-02
-7.944021054485441E-02
-8.000000000000000E-02
-7.940474011708756E-02
-8.000000000000000E-02
-8.000000000000000E-02
-8.000000000000000E-02
-8.000000000000000E-02
-8.000000000000000E-02
-8.000000000000000E-02
-8.000000000000000E-02
-8.000000000000000E-02
-8.000000000000000E-02
-8.000000000000000E-02
-8.000000000000000E-02
-8.000000000000000E-02
-7.976411091958187E-02
-7.975828113969230E-02
-8.000000000000000E-02
-8.000000000000000E-02
-8.000000000000000E-02
-8.000000000000000E-02
-8.000000000000000E-02
-7.989393883928357E-02
-8.000000000000000E-02
-8.000000000000000E-02
-8.000000000000000E-02
-8.000000000000000E-02
-8.000000000000000E-02
-8.000000000000000E-02
-8.000000000000000E-02
-8.000000000000000E-02
-8.000000000000000E-02
-8.000000000000000E-02
-8.000000000000000E-02
-8.000000000000000E-02
-8.000000000000000E-02
-8.000000000000000E-02
-8.000000000000000E-02
-8.000000000000000E-02
-8.000000000000000E-02
-7.995521214775440E-02
-8.000000000000000E-02
-8.000000000000000E-02
-8.000000000000000E-02
-8.000000000000000E-02
-7.961077700427469E-02
-8.000000000000000E-02
-8.000000000000000E-02
-8.000000000000000E-02
-8.000000000000000E-02
-8.000000000000000E-02
-8.000000000000000E-02
-8.000000000000000E-02
-8.000000000000000E-02
-8.000000000000000E-02
-8.000000000000000E-02
-8.000000000000000E-02
-7.992091618745339E-02
-7.997006748616914E-02
-8.000000000000000E-02
-8.000000000000000E-02
-8.000000000000000E-02
-8.000000000000000E-02
-8.000000000000000E-02
-8.000000000000000E-02
-8.000000000000000E-02
-8.000000000000000E-02
-8.000000000000000E-02
-8.000000000000000E-02
-7.991155779982870E-02
-8.000000000000000E-02
-8.000000000000000E-02
-8.000000000000000E-02
-8.000000000000000E-02
-8.000000000000000E-02
-8.000000000000000E-02
-8.000000000000000E-02
-8.000000000000000E-02
-8.000000000000000E-02
-8.000000000000000E-02
-8.000000000000000E-02
-8.000000000000000E-02
-8.000000000000000E-02
-7.996506020723809E-02
-8.000000000000000E-02
-8.000000000000000E-02
-8.000000000000000E-02
-8.000000000000000E-02
-8.000000000000000E-02
-7.998205516058303E-02
-8.000000000000000E-02
-7.972929900165203E-02
-8.000000000000000E-02
-8.000000000000000E-02
-8.000000000000000E-02
-8.000000000000000E-02
-8.000000000000000E-02
-8.000000000000000E-02
-8.000000000000000E-02
-8.000000000000000E-02
-8.000000000000000E-02
-8.000000000000000E-02
-8.000000000000000E-02
-8.000000000000000E-02
-7.997940220069064E-02
-8.000000000000000E-02
-8.000000000000000E-02
-8.000000000000000E-02
-8.000000000000000E-02
-8.000000000000000E-02
-7.995973408789087E-02
-8.000000000000000E-02
-8.000000000000000E-02
-8.000000000000000E-02
-8.000000000000000E-02
-8.000000000000000E-02
-8.000000000000000E-02
-8.000000000000000E-02
-8.000000000000000E-02
-8.000000000000000E-02
-8.000000000000000E-02
-8.000000000000000E-02
-7.991323110348574E-02
-8.000000000000000E-02
-8.000000000000000E-02
-8.000000000000000E-02
-7.983232264638183E-02
 1.179211028036731E+00
 1.179491972876363E+00
 1.179447083564583E+00
 1.179309597477401E+00
 1.179110115794834E+00
 1.178926527201618E+00
 1.178723102805829E+00
 1.178215891087043E+00
 1.178806483531312E+00
 1.178235767677380E+00
 1.177514056351355E+00
 1.178292295806776E+00
 1.177862312476317E+00
 1.177236980497361E+00
 1.178099131100552E+00
 1.177845611809340E+00
 1.177246067251526E+00
 1.177826510718805E+00
 1.176981618337844E+00
 1.177526110126109E+00
 1.176780738837397E+00
 1.178255358073441E+00
 1.177366031139446E+00
 1.177758256190141E+00
 1.178205354169745E+00
 1.178815253045024E+00
 1.179334543263363E+00
 1.178450879003791E+00
 1.178879136749740E+00
 1.178336259897695E+00
 1.178620195007071E+00
 1.178612421733188E+00
 1.178490483697586E+00
 1.178154906765289E+00
 1.177436732564378E+00
 1.177625837658293E+00
 1.177649597896864E+00
 1.177764914362551E+00
 1.178045941922100E+00
 1.178287366793871E+00
 1.178382241858992E+00
 1.178255342043986E+00
 1.178024133688412E+00
 1.177657157333349E+00
 1.177119700544990E+00
 1.176316831519808E+00
 1.176652198772930E+00
 1.177392035479315E+00
 1.177609955178809E+00
 1.178716320946604E+00
 1.178447801931329E+00
 1.178931273026326E+00
 1.178839300650802E+00
 1.179352525786003E+00
 1.179221966251178E+00
 1.179051351214671E+00
 1.178911222527167E+00
 1.178820976040044E+00
 1.178652487663445E+00
 1.178463753219393E+00
 1.178117279811261E+00
 1.177801094414502E+00
 1.177677790258099E+00
 1.177478540389669E+00
 1.177404325196140E+00
 1.177131809019334E+00
 1.176831655961165E+00
 1.177749515662689E+00
 1.177489758574769E+00
 1.177312386341753E+00
 1.176723423747691E+00
 1.175945779524890E+00
 1.175792920286902E+00
 1.176763068400212E+00
 1.177162026203468E+00
 1.178340012676867E+00
 1.177859983980386E+00
 1.177863016019097E+00
 1.179435835545390E+00
 1.179303577378916E+00
 1.179335551531348E+00
 1.179334968095643E+00
 1.179214225085368E+00
 1.179133895499131E+00
 1.179086330633637E+00
 1.178947195259642E+00
 1.178639536116524E+00
 1.178404648417658E+00
 1.178322919031288E+00
 1.178294684684176E+00
 1.178266809197006E+00
 1.178188699427241E+00
 1.177982326094803E+00
 1.177404913449014E+00
 1.177864596935469E+00
 1.177916045271014E+00
 1.177714383121070E+00
 1.177280295161279E+00
 1.176515171784130E+00
 1.177621090139086E+00
 1.178577199153608E+00
 1.178956873876159E+00
 1.178869719984943E+00
 1.178594121640711E+00
 1.179377593303529E+00
 1.178787011228273E+00
 1.178262140748286E+00
 1.178474160317397E+00
 1.178427971157059E+00
 1.178296214938426E+00
 1.178668139457482E+00
 1.177735972372279E+00
 1.177557750924572E+00
 1.177041825656801E+00
 1.177361864479342E+00
 1.177472759122159E+00
 1.177519473320852E+00
 1.177670755233221E+00
 1.177618670675253E+00
 1.177663366384607E+00
 1.177483113390708E+00
 1.177340748504574E+00
 1.177232842935913E+00
 1.176994152089498E+00
 1.176519979977836E+00
 1.177541124014784E+00
 1.178396684978365E+00
 1.178819113645518E+00
 1.178866093430770E+00
 1.178595117173192E+00
 1.180000000000000E+00
 1.180000000000000E+00
 1.180000000000000E+00
 1.180000000000000E+00
 1.180000000000000E+00
 1.180000000000000E+00
 1.180000000000000E+00
 1.180000000000000E+00
 1.180000000000000E+00
 1.180000000000000E+00
 1.180000000000000E+00
 1.180000000000000E+00
 1.180000000000000E+00
 1.180000000000000E+00
 1.180000000000000E+00
 1.180000000000000E+00
 1.180000000000000E+00
 1.180000000000000E+00
 1.180000000000000E+00
 1.180000000000000E+00
 1.180000000000000E+00
 1.180000000000000E+00
 1.180000000000000E+00
 1.180000000000000E+00
 1.180000000000000E+00
 1.180000000000000E+00
 1.180000000000000E+00
 1.180000000000000E+00
 1.180000000000000E+00
 1.180000000000000E+00
 1.180000000000000E+00
 1.180000000000000E+00
 1.180000000000000E+00
 1.180000000000000E+00
 1.180000000000000E+00
 1.180000000000000E+00
 1.180000000000000E+00
 1.180000000000000E+00
 1.179826388531105E+00
 1.179320811406514E+00
 1.179408693483395E+00
 1.179904087162003E+00
 1.179785097626058E+00
 1.179946651016481E+00
 1.180000000000000E+00
 1.180000000000000E+00
 1.180000000000000E+00
 1.180000000000000E+00
 1.180000000000000E+00
 1.180000000000000E+00
 1.180000000000000E+00
 1.180000000000000E+00
 1.180000000000000E+00
 1.179737837523775E+00
 1.180000000000000E+00
 1.180000000000000E+00
 1.180000000000000E+00
 1.180000000000000E+00
 1.180000000000000E+00
 1.180000000000000E+00
 1.180000000000000E+00
 1.180000000000000E+00
 1.180000000000000E+00
 1.180000000000000E+00
 1.180000000000000E+00
 1.180000000000000E+00
 1.180000000000000E+00
 1.180000000000000E+00
 1.179843382707053E+00
 1.180000000000000E+00
 1.180000000000000E+00
 1.180000000000000E+00
 1.180000000000000E+00
 1.180000000000000E+00
 1.180000000000000E+00
 1.180000000000000E+00
 1.180000000000000E+00
 1.180000000000000E+00
 1.180000000000000E+00
 1.180000000000000E+00
 1.180000000000000E+00
 1.180000000000000E+00
 1.180000000000000E+00
 1.180000000000000E+00
 1.180000000000000E+00
 1.180000000000000E+00
 1.180000000000000E+00
 1.180000000000000E+00
 1.179816627444035E+00
 1.180000000000000E+00
 1.180000000000000E+00
 1.180000000000000E+00
 1.180000000000000E+00
 1.180000000000000E+00
 1.180000000000000E+00
 1.180000000000000E+00
 1.180000000000000E+00
 1.180000000000000E+00
 1.180000000000000E+00
 1.180000000000000E+00
 1.180000000000000E+00
 1.180000000000000E+00
 1.180000000000000E+00
 1.180000000000000E+00
 1.180000000000000E+00
 1.180000000000000E+00
 1.179252756701861E+00
 1.179996385677239E+00
 1.180000000000000E+00
 1.180000000000000E+00
 1.180000000000000E+00
 1.180000000000000E+00
 1.180000000000000E+00
 1.180000000000000E+00
 1.180000000000000E+00
 1.180000000000000E+00
 1.180000000000000E+00
 1.180000000000000E+00
 1.180000000000000E+00
 1.180000000000000E+00
 1.180000000000000E+00
 1.180000000000000E+00
 1.180000000000000E+00
 1.180000000000000E+00
 1.180000000000000E+00
 1.180000000000000E+00
 1.179063507308201E+00
 1.180000000000000E+00
 1.180000000000000E+00
 1.180000000000000E+00
 1.180000000000000E+00
 1.180000000000000E+00
 1.179348476163662E+00
 1.180000000000000E+00
 1.180000000000000E+00
 1.180000000000000E+00
 1.180000000000000E+00
 1.180000000000000E+00
 1.180000000000000E+00
 1.180000000000000E+00
 1.180000000000000E+00
 1.180000000000000E+00
 1.180000000000000E+00
 1.180000000000000E+00
 1.179123559885690E+00
 1.179961895334203E+00
 1.180000000000000E+00
 1.180000000000000E+00
 1.180000000000000E+00
 1.180000000000000E+00
 1.180000000000000E+00
 1.180000000000000E+00
 1.180000000000000E+00
 1.180000000000000E+00
 1.179726531875255E+00
 1.180000000000000E+00
 1.180000000000000E+00
 1.180000000000000E+00
 1.180000000000000E+00
 1.180000000000000E+00
 1.180000000000000E+00
 1.180000000000000E+00
 1.180000000000000E+00
 1.180000000000000E+00
 1.180000000000000E+00
 1.180000000000000E+00
 1.180000000000000E+00
 1.180000000000000E+00
 1.180000000000000E+00
 1.179274105346518E+00
 1.179982961881283E+00
 1.180000000000000E+00
 1.180000000000000E+00
 1.180000000000000E+00
 1.180000000000000E+00
 1.180000000000000E+00
 1.180000000000000E+00
 1.179633115596380E+00
 1.180000000000000E+00
 1.180000000000000E+00
 1.180000000000000E+00
 1.180000000000000E+00
 1.180000000000000E+00
 1.180000000000000E+00
 1.180000000000000E+00
 1.180000000000000E+00
 1.180000000000000E+00
 1.180000000000000E+00
 1.180000000000000E+00
 1.180000000000000E+00
 1.180000000000000E+00
 1.180000000000000E+00
 1.180000000000000E+00
 1.180000000000000E+00
 1.180000000000000E+00
 1.180000000000000E+00
 1.180000000000000E+00
 1.180000000000000E+00
 1.179421679900357E+00
 1.180000000000000E+00
 1.180000000000000E+00
 1.180000000000000E+00
 1.180000000000000E+00
 1.180000000000000E+00
 1.180000000000000E+00
 1.180000000000000E+00
 1.180000000000000E+00
 1.180000000000000E+00
 1.180000000000000E+00
 1.179086191936723E+00
 1.179976215548573E+00
 1.180000000000000E+00
 1.180000000000000E+00
 1.180000000000000E+00
 1.180000000000000E+00
 1.180000000000000E+00
 1.180000000000000E+00
 1.180000000000000E+00
 1.180000000000000E+00
 1.180000000000000E+00
 1.180000000000000E+00
 1.180000000000000E+00
 1.180000000000000E+00
 1.180000000000000E+00
 1.180000000000000E+00
 1.180000000000000E+00
 1.179453137344008E+00
 1.180000000000000E+00
 1.180000000000000E+00
 1.180000000000000E+00
 1.180000000000000E+00
 1.180000000000000E+00
 1.180000000000000E+00
 1.180000000000000E+00
 1.180000000000000E+00
 1.180000000000000E+00
 1.179734585212888E+00
 1.179994911162928E+00
 1.180000000000000E+00
 1.180000000000000E+00
 1.180000000000000E+00
 1.180000000000000E+00
 1.180000000000000E+00
 1.180000000000000E+00
 1.180000000000000E+00
 1.179018233623827E+00
 1.179990075168300E+00
 1.180000000000000E+00
 1.180000000000000E+00
 1.180000000000000E+00
 1.180000000000000E+00
 1.180000000000000E+00
 1.180000000000000E+00
 1.180000000000000E+00
 1.180000000000000E+00
 1.180000000000000E+00
 1.180000000000000E+00
 1.180000000000000E+00
 1.180000000000000E+00
 1.180000000000000E+00
 1.180000000000000E+00
 1.180000000000000E+00
 1.180000000000000E+00
 1.179396019686664E+00
 1.180000000000000E+00
 1.180000000000000E+00
 1.180000000000000E+00
 1.180000000000000E+00
 1.180000000000000E+00
 1.180000000000000E+00
 1.180000000000000E+00
 1.180000000000000E+00
 1.180000000000000E+00
 1.180000000000000E+00
 1.179054452059372E+00
 1.179997043139284E+00
 1.180000000000000E+00
 1.180000000000000E+00
 1.180000000000000E+00
 1.180000000000000E+00
 1.180000000000000E+00
 1.180000000000000E+00
 1.180000000000000E+00
 1.180000000000000E+00
 1.180000000000000E+00
 1.180000000000000E+00
 1.180000000000000E+00
 1.180000000000000E+00
 1.180000000000000E+00
 1.180000000000000E+00
 1.180000000000000E+00
 1.180000000000000E+00
 1.180000000000000E+00
 1.180000000000000E+00
 1.180000000000000E+00
 1.180000000000000E+00
 1.180000000000000E+00
 1.180000000000000E+00
 1.180000000000000E+00
 1.179649371040605E+00
 1.180000000000000E+00
 1.180000000000000E+00
 1.180000000000000E+00
 1.180000000000000E+00
 1.180000000000000E+00
 1.180000000000000E+00
 1.180000000000000E+00
 1.180000000000000E+00
 1.180000000000000E+00
 1.180000000000000E+00
 1.180000000000000E+00
 1.180000000000000E+00
 1.179956235475107E+00
 1.180000000000000E+00
 1.180000000000000E+00
 1.180000000000000E+00
 1.180000000000000E+00
 1.180000000000000E+00
 1.180000000000000E+00
 1.180000000000000E+00
 1.180000000000000E+00
 1.180000000000000E+00
 1.180000000000000E+00
 1.180000000000000E+00
 1.180000000000000E+00
 1.180000000000000E+00
 1.180000000000000E+00
 1.180000000000000E+00
 1.180000000000000E+00
 1.180000000000000E+00
 1.179859822319332E+00
 1.180000000000000E+00
 1.180000000000000E+00
 1.180000000000000E+00
 1.180000000000000E+00
 1.180000000000000E+00
 1.180000000000000E+00
 1.180000000000000E+00
 1.180000000000000E+00
 1.180000000000000E+00
 1.180000000000000E+00
 1.180000000000000E+00
 1.180000000000000E+00
 1.180000000000000E+00
 1.180000000000000E+00
 1.180000000000000E+00
 1.180000000000000E+00
 1.179958799495665E+00
 1.180000000000000E+00
 1.180000000000000E+00
 1.180000000000000E+00
 1.180000000000000E+00
 1.180000000000000E+00
 1.180000000000000E+00
 1.180000000000000E+00
 1.180000000000000E+00
 1.180000000000000E+00
 1.180000000000000E+00
 1.180000000000000E+00
 1.180000000000000E+00
 1.180000000000000E+00
 1.180000000000000E+00
 1.180000000000000E+00
 1.180000000000000E+00
 1.180000000000000E+00
 1.180000000000000E+00
 1.180000000000000E+00
 1.180000000000000E+00
 1.180000000000000E+00
 1.180000000000000E+00
 1.180000000000000E+00
 1.180000000000000E+00
 1.180000000000000E+00
 1.180000000000000E+00
 1.179964464557080E+00
 1.180000000000000E+00
 1.180000000000000E+00
 1.180000000000000E+00
 1.180000000000000E+00
 1.180000000000000E+00
 1.180000000000000E+00
 1.180000000000000E+00
 1.180000000000000E+00
 1.180000000000000E+00
 1.180000000000000E+00
 1.180000000000000E+00
 1.180000000000000E+00
 1.180000000000000E+00
 1.180000000000000E+00
 1.180000000000000E+00
 1.180000000000000E+00
 1.180000000000000E+00
 1.180000000000000E+00
 1.180000000000000E+00
 1.180000000000000E+00
 1.180000000000000E+00
 1.180000000000000E+00
 1.180000000000000E+00
 1.180000000000000E+00
 1.180000000000000E+00
 1.180000000000000E+00
 1.179345861332954E+00
 1.179880103616047E+00
 1.180000000000000E+00
 1.180000000000000E+00
 1.180000000000000E+00
 1.180000000000000E+00
 1.180000000000000E+00
 1.180000000000000E+00
 1.180000000000000E+00
 1.180000000000000E+00
 1.180000000000000E+00
 1.180000000000000E+00
 1.180000000000000E+00
 1.180000000000000E+00
 1.180000000000000E+00
 1.180000000000000E+00
 1.180000000000000E+00
 1.180000000000000E+00
 1.180000000000000E+00
 1.180000000000000E+00
 1.180000000000000E+00
 1.180000000000000E+00
 1.180000000000000E+00
 1.180000000000000E+00
 1.180000000000000E+00
 1.180000000000000E+00
 1.180000000000000E+00
 1.180000000000000E+00
 1.180000000000000E+00
 1.180000000000000E+00
 1.180000000000000E+00
 1.180000000000000E+00
 1.180000000000000E+00
 1.180000000000000E+00
 1.180000000000000E+00
 1.180000000000000E+00
 1.180000000000000E+00
 1.180000000000000E+00
 1.180000000000000E+00
 1.180000000000000E+00
 1.180000000000000E+00
 1.180000000000000E+00
 1.180000000000000E+00
 1.180000000000000E+00
 1.180000000000000E+00
 1.180000000000000E+00
 1.180000000000000E+00
 1.180000000000000E+00
 1.180000000000000E+00
 1.180000000000000E+00
 1.180000000000000E+00
 1.180000000000000E+00
 1.180000000000000E+00
 1.180000000000000E+00
 1.180000000000000E+00
 1.180000000000000E+00
 1.180000000000000E+00
 1.179976066510064E+00
 1.180000000000000E+00
 1.180000000000000E+00
 1.180000000000000E+00
 1.180000000000000E+00
 1.180000000000000E+00
 1.180000000000000E+00
 1.180000000000000E+00
 1.180000000000000E+00
 1.180000000000000E+00
 1.180000000000000E+00
 1.180000000000000E+00
 1.180000000000000E+00
 1.180000000000000E+00
 1.180000000000000E+00
 1.180000000000000E+00
 1.180000000000000E+00
 1.180000000000000E+00
 1.179999150310342E+00
 1.180000000000000E+00
 1.180000000000000E+00
 1.180000000000000E+00
 1.180000000000000E+00
 1.180000000000000E+00
 1.180000000000000E+00
 1.180000000000000E+00
 1.180000000000000E+00
 1.180000000000000E+00
 1.180000000000000E+00
 1.180000000000000E+00
 1.180000000000000E+00
 1.180000000000000E+00
 1.180000000000000E+00
 1.180000000000000E+00
 1.180000000000000E+00
 1.180000000000000E+00
 1.180000000000000E+00
 1.180000000000000E+00
 1.180000000000000E+00
 1.180000000000000E+00
 1.180000000000000E+00
 1.180000000000000E+00
 1.180000000000000E+00
 1.180000000000000E+00
 1.180000000000000E+00
 1.180000000000000E+00
 1.180000000000000E+00
 1.180000000000000E+00
 1.180000000000000E+00
 1.180000000000000E+00
 1.180000000000000E+00
 1.180000000000000E+00
 1.180000000000000E+00
 1.180000000000000E+00
 1.180000000000000E+00
 1.180000000000000E+00
 1.180000000000000E+00
 1.180000000000000E+00
 1.180000000000000E+00
 1.180000000000000E+00
 1.180000000000000E+00
 1.180000000000000E+00
 1.180000000000000E+00
 1.180000000000000E+00
 1.180000000000000E+00
 1.180000000000000E+00
 1.180000000000000E+00
 1.180000000000000E+00
 1.180000000000000E+00
 1.180000000000000E+00
 1.180000000000000E+00
 1.180000000000000E+00
 1.180000000000000E+00
 1.180000000000000E+00
 1.180000000000000E+00
 1.180000000000000E+00
 1.180000000000000E+00
 1.180000000000000E+00
 1.180000000000000E+00
 1.180000000000000E+00
 1.180000000000000E+00
 1.180000000000000E+00
 1.180000000000000E+00
 1.180000000000000E+00
 1.180000000000000E+00
 1.180000000000000E+00
 1.180000000000000E+00
 1.180000000000000E+00
 1.180000000000000E+00
 1.180000000000000E+00
 1.180000000000000E+00
 1.180000000000000E+00
 1.180000000000000E+00
 1.180000000000000E+00
 1.179890469463677E+00
 1.180000000000000E+00
 1.180000000000000E+00
 1.180000000000000E+00
 1.180000000000000E+00
 1.180000000000000E+00
 1.180000000000000E+00
 1.180000000000000E+00
 1.180000000000000E+00
 1.180000000000000E+00
 1.180000000000000E+00
 1.179139160769510E+00
 1.179763261981391E+00
 1.180000000000000E+00
 1.180000000000000E+00
 1.180000000000000E+00
 1.180000000000000E+00
 1.180000000000000E+00
 1.180000000000000E+00
 1.180000000000000E+00
 1.180000000000000E+00
 1.180000000000000E+00
 1.180000000000000E+00
 1.180000000000000E+00
 1.180000000000000E+00
 1.180000000000000E+00
 1.180000000000000E+00
 1.180000000000000E+00
 1.180000000000000E+00
 1.180000000000000E+00
 1.180000000000000E+00
 1.180000000000000E+00
 1.179925191914209E+00
 1.180000000000000E+00
 1.180000000000000E+00
 1.180000000000000E+00
 1.180000000000000E+00
 1.180000000000000E+00
 1.180000000000000E+00
 1.180000000000000E+00
 1.180000000000000E+00
 1.180000000000000E+00
 1.180000000000000E+00
 1.180000000000000E+00
 1.180000000000000E+00
 1.180000000000000E+00
 1.180000000000000E+00
 1.180000000000000E+00
 1.179945303740762E+00
 1.180000000000000E+00
 1.180000000000000E+00
 1.180000000000000E+00
 1.180000000000000E+00
 1.180000000000000E+00
 1.180000000000000E+00
 1.180000000000000E+00
 1.180000000000000E+00
 1.180000000000000E+00
 1.180000000000000E+00
 1.180000000000000E+00
 1.180000000000000E+00
 1.180000000000000E+00
 1.180000000000000E+00
 1.180000000000000E+00
 1.180000000000000E+00
 1.180000000000000E+00
 1.180000000000000E+00
 1.180000000000000E+00
 1.180000000000000E+00
 1.180000000000000E+00
 1.180000000000000E+00
 1.180000000000000E+00
 1.180000000000000E+00
 1.180000000000000E+00
 1.180000000000000E+00
 1.180000000000000E+00
 1.179956225431142E+00
 1.180000000000000E+00
 1.180000000000000E+00
 1.180000000000000E+00
 1.180000000000000E+00
 1.180000000000000E+00
 1.180000000000000E+00
 1.180000000000000E+00
 1.180000000000000E+00
 1.180000000000000E+00
 1.180000000000000E+00
 1.179958438818397E+00
 1.180000000000000E+00
 1.180000000000000E+00
 1.180000000000000E+00
 1.180000000000000E+00
 1.179593505299197E+00
 1.179889648084534E+00
 1.179998995971094E+00
 1.180000000000000E+00
 1.180000000000000E+00
 1.180000000000000E+00
 1.180000000000000E+00
 1.180000000000000E+00
 1.180000000000000E+00
 1.180000000000000E+00
 1.180000000000000E+00
 1.180000000000000E+00
 1.180000000000000E+00
 1.180000000000000E+00
 1.180000000000000E+00
 1.180000000000000E+00
 1.180000000000000E+00
 1.180000000000000E+00
 1.180000000000000E+00
 1.180000000000000E+00
 1.180000000000000E+00
 1.180000000000000E+00
 1.180000000000000E+00
 1.180000000000000E+00
 1.180000000000000E+00
 1.180000000000000E+00
 1.180000000000000E+00
 1.180000000000000E+00
 1.180000000000000E+00
 1.180000000000000E+00
 1.180000000000000E+00
 1.179940497314865E+00
 1.180000000000000E+00
 1.180000000000000E+00
 1.180000000000000E+00
 1.180000000000000E+00
 1.180000000000000E+00
 1.180000000000000E+00
 1.180000000000000E+00
 1.180000000000000E+00
 1.180000000000000E+00
 1.180000000000000E+00
 1.180000000000000E+00
 1.180000000000000E+00
 1.179930906754625E+00
 1.180000000000000E+00
 1.180000000000000E+00
 1.180000000000000E+00
 1.180000000000000E+00
 1.180000000000000E+00
 1.180000000000000E+00
 1.180000000000000E+00
 1.180000000000000E+00
 1.180000000000000E+00
 1.180000000000000E+00
 1.180000000000000E+00
 1.180000000000000E+00
 1.179951232383875E+00
 1.180000000000000E+00
 1.180000000000000E+00
 1.180000000000000E+00
 1.180000000000000E+00
 1.180000000000000E+00
 1.180000000000000E+00
 1.180000000000000E+00
 1.180000000000000E+00
 1.180000000000000E+00
 1.180000000000000E+00
 1.180000000000000E+00
 1.180000000000000E+00
 1.180000000000000E+00
 1.180000000000000E+00
 1.180000000000000E+00
 1.180000000000000E+00
 1.179859702167136E+00
 1.180000000000000E+00
 1.180000000000000E+00
 1.180000000000000E+00
 1.180000000000000E+00
 1.180000000000000E+00
 1.180000000000000E+00
 1.180000000000000E+00
 1.180000000000000E+00
 1.180000000000000E+00
 1.180000000000000E+00
 1.180000000000000E+00
 1.180000000000000E+00
 1.180000000000000E+00
 1.180000000000000E+00
 1.180000000000000E+00
 1.179716805532761E+00
 1.180000000000000E+00
 1.180000000000000E+00
 1.180000000000000E+00
 1.180000000000000E+00
 1.179876958497916E+00
 1.180000000000000E+00
 1.180000000000000E+00
 1.180000000000000E+00
 1.180000000000000E+00
 1.180000000000000E+00
 1.179998726568760E+00
 1.180000000000000E+00
 1.180000000000000E+00
 1.180000000000000E+00
 1.180000000000000E+00
 1.180000000000000E+00
 1.180000000000000E+00
 1.180000000000000E+00
 1.180000000000000E+00
 1.180000000000000E+00
 1.180000000000000E+00
 1.180000000000000E+00
 1.180000000000000E+00
 1.180000000000000E+00
 1.180000000000000E+00
 1.180000000000000E+00
 1.180000000000000E+00
 1.179495758373095E+00
 1.180000000000000E+00
 1.180000000000000E+00
 1.180000000000000E+00
 1.180000000000000E+00
 1.180000000000000E+00
 1.180000000000000E+00
 1.180000000000000E+00
 1.180000000000000E+00