VARIABLES = "X" "Y" "Z" "FREF"
ZONE T="instant 039"
STRANDID=0, SOLUTIONTIME=0
Nodes=3151, Elements=6298
ZONETYPE=FETriangle
DATAPACKING=BLOCK
VARLOCATION = ([1-3]=NODAL, [4]=CELLCENTERED)
5.000000e-01
1.411483e-01
1.586453e-01
1.752792e-01
1.913099e-01
2.099628e-01
2.302599e-01
2.520323e-01
2.752878e-01
2.995776e-01
3.241159e-01
3.476774e-01
3.700629e-01
3.915426e-01
4.112411e-01
4.283055e-01
4.424433e-01
4.531361e-01
4.627702e-01
4.725392e-01
4.809707e-01
4.876837e-01
4.926679e-01
4.962833e-01
4.985764e-01
4.997313e-01
1.264000e-01
1.264000e-01
1.264000e-01
1.264000e-01
1.264000e-01
1.264000e-01
1.264000e-01
1.264000e-01
1.264000e-01
1.264000e-01
1.264000e-01
1.264000e-01
2.757314e-01
2.741587e-01
2.706640e-01
2.651603e-01
2.587280e-01
2.535992e-01
2.471337e-01
2.388212e-01
2.304227e-01
2.222497e-01
2.136179e-01
2.036006e-01
1.952313e-01
1.869909e-01
1.790760e-01
1.694396e-01
1.600337e-01
1.527751e-01
1.444118e-01
1.355509e-01
2.764000e-01
4.801561e-01
4.553766e-01
4.340620e-01
4.126992e-01
3.878408e-01
3.635103e-01
3.428107e-01
3.237271e-01
3.051036e-01
2.894724e-01
3.273510e-01
1.648686e-01
1.545765e-01
3.405886e-01
3.188124e-01
1.693198e-01
1.794076e-01
1.612774e-01
1.823736e-01
1.439775e-01
1.833576e-01
1.701860e-01
1.874599e-01
1.999789e-01
4.819681e-01
2.137490e-01
2.319319e-01
2.066357e-01
2.192548e-01
2.689868e-01
2.836355e-01
3.208487e-01
2.998408e-01
3.036603e-01
3.329354e-01
3.505278e-01
3.269588e-01
4.736831e-01
4.606269e-01
3.406377e-01
3.632961e-01
3.559654e-01
3.783529e-01
3.747958e-01
3.870950e-01
2.887313e-01
3.166138e-01
3.023391e-01
2.828836e-01
1.628606e-01
1.487330e-01
1.410639e-01
1.423021e-01
1.420555e-01
1.576312e-01
1.735935e-01
1.426909e-01
1.583892e-01
1.746712e-01
1.918416e-01
1.355431e-01
1.463504e-01
1.601238e-01
1.759700e-01
4.779736e-01
1.925753e-01
2.108937e-01
2.111590e-01
2.309231e-01
2.132203e-01
2.301526e-01
2.516432e-01
1.426964e-01
1.594169e-01
1.764611e-01
1.942923e-01
1.895415e-01
1.878837e-01
1.978659e-01
2.070489e-01
2.278113e-01
2.448226e-01
2.566108e-01
2.729650e-01
1.406775e-01
1.565755e-01
1.740268e-01
1.935165e-01
2.105628e-01
2.264607e-01
2.459885e-01
2.294252e-01
2.429802e-01
2.480720e-01
2.634270e-01
2.799789e-01
3.001750e-01
2.052062e-01
2.194506e-01
2.343355e-01
2.647347e-01
4.709253e-01
4.574194e-01
4.464639e-01
4.335295e-01
2.831449e-01
3.022933e-01
3.238854e-01
2.119925e-01
2.494851e-01
2.664820e-01
2.856396e-01
3.035361e-01
3.235818e-01
3.459191e-01
2.268263e-01
2.428640e-01
2.605118e-01
2.695781e-01
2.882231e-01
3.099878e-01
4.634238e-01
4.478005e-01
4.340590e-01
4.210148e-01
4.063356e-01
3.229922e-01
3.432544e-01
3.664051e-01
2.853700e-01
3.077835e-01
3.366556e-01
3.607192e-01
3.853428e-01
2.318396e-01
2.476732e-01
2.651487e-01
2.848095e-01
3.307827e-01
3.545780e-01
3.785644e-01
4.030697e-01
3.061449e-01
3.279551e-01
3.498289e-01
3.728128e-01
3.956957e-01
4.193653e-01
4.019843e-01
4.187136e-01
2.499448e-01
2.665770e-01
2.851833e-01
3.057343e-01
3.277120e-01
3.490894e-01
3.675779e-01
3.914783e-01
4.116990e-01
4.348737e-01
3.512724e-01
3.614852e-01
4.548996e-01
4.385510e-01
4.238996e-01
4.102176e-01
3.968834e-01
3.837020e-01
3.696695e-01
3.734832e-01
3.867063e-01
4.002247e-01
4.132524e-01
4.286441e-01
4.453375e-01
1.264000e-01
4.996231e-01
4.976173e-01
4.941092e-01
4.891015e-01
4.811493e-01
4.717920e-01
4.599262e-01
4.454216e-01
4.269768e-01
4.073395e-01
3.892742e-01
3.694693e-01
3.477645e-01
3.251731e-01
3.058360e-01
2.894757e-01
2.730810e-01
2.549402e-01
2.358818e-01
2.171986e-01
1.992740e-01
1.821767e-01
1.662294e-01
1.514518e-01
1.380614e-01
5.000000e-01
2.894543e-01
3.057409e-01
3.247459e-01
3.464369e-01
3.677292e-01
3.887398e-01
4.108546e-01
4.356288e-01
4.611062e-01
4.831355e-01
2.764000e-01
1.351604e-01
1.438655e-01
1.542250e-01
1.657226e-01
1.759750e-01
1.858411e-01
1.958522e-01
2.057790e-01
2.147004e-01
2.215916e-01
2.303585e-01
2.383776e-01
2.447987e-01
2.501586e-01
2.551497e-01
2.616612e-01
2.666321e-01
2.694350e-01
2.719598e-01
2.742808e-01
2.759077e-01
1.264000e-01
1.264000e-01
1.264000e-01
1.264000e-01
1.264000e-01
1.264000e-01
1.264000e-01
1.264000e-01
1.264000e-01
1.264000e-01
1.264000e-01
3.253324e-01
3.619530e-01
1.621673e-01
1.911399e-01
1.840477e-01
2.876718e-01
2.958871e-01
3.102775e-01
3.101245e-01
3.336213e-01
3.340837e-01
3.433547e-01
3.241609e-01
3.964400e-01
1.398213e-01
3.760976e-01
3.520647e-01
3.823593e-01
3.347677e-01
3.699504e-01
3.540191e-01
3.908154e-01
3.748838e-01
1.444647e-01
1.869884e-01
1.650145e-01
1.545386e-01
1.432231e-01
1.837704e-01
2.112913e-01
1.781418e-01
2.128547e-01
1.995222e-01
2.255819e-01
2.116408e-01
2.375229e-01
2.522900e-01
1.486213e-01
2.909018e-01
1.430750e-01
1.524384e-01
1.671830e-01
2.811086e-01
2.969046e-01
3.114893e-01
4.757138e-01
4.506109e-01
4.642103e-01
4.735714e-01
4.157576e-01
4.272882e-01
4.382796e-01
4.493766e-01
1.695210e-01
1.576207e-01
1.417715e-01
4.636253e-01
4.130768e-01
4.237238e-01
4.351514e-01
4.557711e-01
3.987002e-01
4.033660e-01
4.335653e-01
4.447037e-01
2.806701e-01
2.903297e-01
3.015657e-01
3.805459e-01
3.986388e-01
4.248209e-01
3.560462e-01
3.796930e-01
3.879815e-01
3.986798e-01
4.075059e-01
4.131203e-01
4.186395e-01
2.658735e-01
3.147092e-01
3.337628e-01
3.596813e-01
3.738628e-01
3.925499e-01
4.111727e-01
2.703858e-01
2.791462e-01
2.898393e-01
3.480728e-01
3.651695e-01
1.858316e-01
1.737860e-01
3.807407e-01
3.952398e-01
2.504351e-01
3.035688e-01
3.184763e-01
3.417489e-01
3.534187e-01
3.661923e-01
3.780702e-01
2.558323e-01
2.643308e-01
2.744859e-01
3.266806e-01
3.393675e-01
3.499105e-01
3.599885e-01
2.858530e-01
2.023219e-01
1.879612e-01
1.725302e-01
1.573143e-01
1.423709e-01
2.958518e-01
3.160186e-01
3.235097e-01
3.322515e-01
3.407188e-01
2.308258e-01
2.373910e-01
2.466708e-01
2.568067e-01
2.978901e-01
3.057346e-01
3.139864e-01
3.208054e-01
2.649334e-01
2.715489e-01
2.795705e-01
2.887796e-01
2.962054e-01
3.006358e-01
1.441446e-01
1.619660e-01
1.837639e-01
2.022909e-01
2.206913e-01
2.392383e-01
2.579634e-01
2.087493e-01
2.146222e-01
2.324433e-01
2.370915e-01
2.434864e-01
2.528028e-01
2.633454e-01
2.750232e-01
2.767515e-01
2.791169e-01
2.198491e-01
2.045066e-01
1.895665e-01
1.752188e-01
1.603981e-01
1.437137e-01
2.250796e-01
2.401618e-01
2.571817e-01
1.950019e-01
2.076685e-01
2.221351e-01
2.382456e-01
5.000000e-01
5.000000e-01
5.000000e-01
5.000000e-01
5.000000e-01
5.000000e-01
5.000000e-01
5.000000e-01
5.000000e-01
5.000000e-01
5.000000e-01
5.000000e-01
5.000000e-01
5.000000e-01
5.000000e-01
5.000000e-01
5.000000e-01
5.000000e-01
5.000000e-01
5.000000e-01
5.000000e-01
5.000000e-01
5.000000e-01
5.000000e-01
5.000000e-01
5.000000e-01
5.000000e-01
5.000000e-01
5.000000e-01
5.000000e-01
5.000000e-01
5.000000e-01
5.000000e-01
1.264000e-01
1.264000e-01
1.264000e-01
1.264000e-01
1.264000e-01
1.264000e-01
1.264000e-01
1.264000e-01
1.264000e-01
1.264000e-01
1.264000e-01
1.264000e-01
1.264000e-01
1.264000e-01
1.264000e-01
1.264000e-01
1.264000e-01
1.264000e-01
1.264000e-01
1.264000e-01
1.264000e-01
1.264000e-01
1.264000e-01
1.264000e-01
1.264000e-01
1.264000e-01
1.264000e-01
1.264000e-01
1.264000e-01
1.264000e-01
1.264000e-01
1.264000e-01
1.264000e-01
3.361870e-01
3.495425e-01
3.441742e-01
3.570265e-01
3.704629e-01
3.938420e-01
3.703233e-01
3.802797e-01
2.918445e-01
3.033562e-01
3.134752e-01
3.143096e-01
3.239949e-01
3.315583e-01
3.380564e-01
3.681032e-01
3.469822e-01
3.356204e-01
3.560994e-01
3.764788e-01
3.255048e-01
3.254312e-01
1.466115e-01
1.384868e-01
3.432603e-01
3.637150e-01
3.841881e-01
3.631915e-01
3.763763e-01
3.897548e-01
3.820382e-01
3.941923e-01
3.993707e-01
4.226244e-01
3.776302e-01
3.925071e-01
3.700555e-01
3.999481e-01
3.805104e-01
3.604296e-01
4.066318e-01
3.878024e-01
3.705678e-01
3.528203e-01
4.044257e-01
4.187111e-01
4.150955e-01
4.004187e-01
3.886742e-01
1.637674e-01
1.531918e-01
1.412569e-01
3.453853e-01
3.583178e-01
3.693020e-01
3.355630e-01
3.478986e-01
3.255600e-01
1.393442e-01
1.490069e-01
1.514551e-01
1.618440e-01
1.649832e-01
1.732828e-01
1.763105e-01
1.798605e-01
1.805370e-01
1.876730e-01
1.920996e-01
1.961757e-01
1.972125e-01
2.038864e-01
2.090154e-01
2.135963e-01
2.076993e-01
2.151116e-01
2.215644e-01
2.270196e-01
2.319704e-01
2.198058e-01
2.268805e-01
2.339278e-01
2.402662e-01
2.458494e-01
2.510119e-01
2.315629e-01
1.809391e-01
1.696471e-01
1.579963e-01
1.463971e-01
1.394936e-01
2.391744e-01
2.465406e-01
2.534717e-01
2.597303e-01
2.652325e-01
2.704250e-01
2.508841e-01
2.592207e-01
2.667174e-01
2.735546e-01
2.797391e-01
2.847913e-01
2.898251e-01
2.621065e-01
2.714098e-01
2.800205e-01
2.872374e-01
2.939694e-01
3.003298e-01
3.038347e-01
3.087970e-01
2.730626e-01
2.828888e-01
2.925902e-01
3.016683e-01
3.074704e-01
3.145444e-01
3.228804e-01
3.204076e-01
3.278970e-01
3.455668e-01
3.958016e-01
3.196771e-01
3.379471e-01
3.586603e-01
1.989944e-01
1.873461e-01
1.755536e-01
1.641983e-01
1.546613e-01
1.449347e-01
3.796967e-01
3.070261e-01
3.268077e-01
3.481720e-01
3.698414e-01
3.884121e-01
4.049232e-01
3.469935e-01
3.592135e-01
3.658427e-01
3.734609e-01
3.799857e-01
3.880325e-01
3.964355e-01
4.051027e-01
4.061666e-01
4.103898e-01
4.150598e-01
4.175019e-01
4.209950e-01
4.251280e-01
3.878618e-01
3.983041e-01
4.069295e-01
4.155019e-01
4.239060e-01
4.303804e-01
4.346315e-01
4.036106e-01
4.081752e-01
4.158275e-01
4.252458e-01
4.329878e-01
4.386396e-01
4.433532e-01
4.198632e-01
4.348582e-01
4.327673e-01
4.441687e-01
4.472277e-01
4.514973e-01
4.557454e-01
4.592586e-01
4.334006e-01
4.500219e-01
4.600047e-01
4.660665e-01
4.462778e-01
4.605918e-01
4.669310e-01
4.720771e-01
4.680524e-01
4.782743e-01
2.184247e-01
2.062487e-01
1.940364e-01
1.822353e-01
1.713160e-01
1.605431e-01
1.482866e-01
1.404157e-01
4.750455e-01
4.840019e-01
4.777787e-01
4.850961e-01
4.927862e-01
4.978739e-01
4.951654e-01
4.915999e-01
4.911422e-01
4.873038e-01
4.856005e-01
4.863493e-01
4.787205e-01
4.796133e-01
4.807454e-01
4.821309e-01
4.706105e-01
4.713942e-01
4.726672e-01
4.742660e-01
4.760990e-01
4.615885e-01
4.630052e-01
4.648432e-01
4.669818e-01
4.693011e-01
4.590384e-01
4.618582e-01
4.498984e-01
4.516711e-01
4.537808e-01
4.562831e-01
4.366657e-01
4.386443e-01
4.409771e-01
4.438742e-01
4.472203e-01
4.506403e-01
4.538349e-01
4.225038e-01
4.240884e-01
4.263488e-01
4.295411e-01
4.336056e-01
4.381128e-01
4.419236e-01
4.449793e-01
3.914868e-01
3.925383e-01
4.082739e-01
4.099192e-01
4.129074e-01
4.178862e-01
4.235129e-01
4.300821e-01
4.312674e-01
4.355003e-01
3.898676e-01
4.047049e-01
3.789570e-01
1.731845e-01
1.985467e-01
1.837667e-01
2.036975e-01
1.958517e-01
2.240063e-01
2.177992e-01
2.093522e-01
2.509638e-01
2.404317e-01
2.391582e-01
2.262675e-01
2.135324e-01
2.011737e-01
1.893506e-01
1.778723e-01
1.663459e-01
1.561730e-01
1.458277e-01
2.316641e-01
2.229298e-01
2.754886e-01
2.648236e-01
2.547669e-01
2.454244e-01
2.364639e-01
2.894269e-01
2.785662e-01
2.685182e-01
2.590371e-01
2.499406e-01
3.138578e-01
3.024294e-01
2.918848e-01
2.820020e-01
2.725530e-01
2.633711e-01
3.372670e-01
3.258575e-01
3.150507e-01
3.049705e-01
2.953862e-01
2.860326e-01
2.767561e-01
3.586430e-01
3.486279e-01
3.375856e-01
3.274917e-01
3.180214e-01
3.088126e-01
2.994833e-01
2.900224e-01
3.760765e-01
3.722970e-01
3.590302e-01
3.491658e-01
3.399202e-01
3.313215e-01
3.223547e-01
3.127490e-01
3.030163e-01
4.274511e-01
4.146258e-01
3.986339e-01
3.804491e-01
3.598246e-01
3.378088e-01
3.155406e-01
4.102135e-01
3.930553e-01
3.732605e-01
3.494727e-01
3.272658e-01
1.400983e-01
1.382625e-01
1.409790e-01
1.547780e-01
1.500553e-01
1.585289e-01
1.705477e-01
1.394792e-01
1.516329e-01
1.636748e-01
1.747592e-01
1.871149e-01
1.404018e-01
1.533976e-01
1.662167e-01
1.788215e-01
1.914970e-01
2.045930e-01
2.610298e-01
2.472673e-01
2.339474e-01
2.210756e-01
2.086376e-01
1.965348e-01
1.846634e-01
1.733376e-01
1.620219e-01
1.495238e-01
1.405250e-01
1.369870e-01
1.438411e-01
1.556458e-01
1.686323e-01
1.818421e-01
1.953723e-01
2.090892e-01
2.229544e-01
1.360798e-01
1.392820e-01
1.499932e-01
1.595611e-01
1.715236e-01
1.847269e-01
1.986356e-01
2.128912e-01
2.275193e-01
2.422628e-01
1.428049e-01
1.534060e-01
1.642873e-01
1.752290e-01
1.878693e-01
2.017325e-01
2.162256e-01
2.311828e-01
2.465625e-01
2.628335e-01
2.804216e-01
1.375253e-01
1.475959e-01
1.573616e-01
1.683515e-01
1.795583e-01
1.913005e-01
2.048136e-01
2.193644e-01
2.344369e-01
2.498822e-01
2.656171e-01
2.817021e-01
2.961695e-01
1.382722e-01
1.496673e-01
1.601432e-01
1.721734e-01
1.842410e-01
1.957986e-01
2.075562e-01
2.223248e-01
2.374914e-01
2.530134e-01
2.688230e-01
2.846254e-01
3.008822e-01
3.138832e-01
1.328720e-01
1.400728e-01
1.507737e-01
1.635402e-01
1.730279e-01
1.887422e-01
2.013147e-01
2.128913e-01
2.231760e-01
2.409933e-01
2.557514e-01
2.719071e-01
2.879147e-01
3.032333e-01
3.222812e-01
3.316828e-01
2.837832e-01
2.689699e-01
2.550452e-01
2.417869e-01
2.289284e-01
2.163454e-01
2.039836e-01
1.918777e-01
1.798932e-01
1.677845e-01
1.563179e-01
1.430771e-01
4.990235e-01
4.996602e-01
4.967122e-01
4.984331e-01
4.995708e-01
4.930835e-01
4.959701e-01
4.980968e-01
4.994903e-01
4.836917e-01
4.883593e-01
4.922450e-01
4.954042e-01
4.978273e-01
4.994187e-01
4.654847e-01
4.759347e-01
4.822515e-01
4.872305e-01
4.914078e-01
4.948659e-01
4.975545e-01
4.993397e-01
4.690994e-01
4.752223e-01
4.809420e-01
4.860597e-01
4.905131e-01
4.942608e-01
4.972169e-01
4.992274e-01
4.538210e-01
4.603869e-01
4.668640e-01
4.733435e-01
4.793275e-01
4.847171e-01
4.894557e-01
4.934804e-01
4.967020e-01
4.989980e-01
4.995787e-01
4.402872e-01
4.492606e-01
4.570318e-01
4.643354e-01
4.711809e-01
4.774616e-01
4.831261e-01
4.881217e-01
4.923670e-01
4.957194e-01
4.979545e-01
4.994290e-01
4.145280e-01
4.262819e-01
4.366367e-01
4.456734e-01
4.539331e-01
4.616282e-01
4.687608e-01
4.752970e-01
4.812006e-01
4.864242e-01
4.908989e-01
4.945385e-01
4.973646e-01
4.992815e-01
3.816422e-01
3.984725e-01
4.117571e-01
4.231108e-01
4.330606e-01
4.422007e-01
3.070600e-01
2.909913e-01
2.764152e-01
2.630201e-01
2.499871e-01
2.371106e-01
2.243471e-01
2.117114e-01
1.991700e-01
1.866355e-01
1.743108e-01
1.615427e-01
1.489830e-01
4.507244e-01
4.586619e-01
4.660099e-01
4.727524e-01
4.788568e-01
4.843161e-01
4.891372e-01
4.933010e-01
4.967904e-01
4.991069e-01
1.391677e-01
1.526392e-01
1.672757e-01
1.829796e-01
1.999572e-01
2.179257e-01
2.367422e-01
2.561251e-01
2.758179e-01
2.955764e-01
3.153300e-01
3.350217e-01
3.544650e-01
3.738310e-01
3.922595e-01
4.093383e-01
4.249171e-01
4.397753e-01
4.547535e-01
4.647747e-01
4.740633e-01
4.841101e-01
4.910979e-01
4.963484e-01
3.662686e-01
3.846166e-01
3.970901e-01
4.091720e-01
4.194508e-01
4.292417e-01
4.385418e-01
4.472444e-01
4.553274e-01
4.628424e-01
4.697359e-01
4.759554e-01
4.816654e-01
4.869353e-01
4.915346e-01
4.964014e-01
4.986015e-01
1.399764e-01
1.542308e-01
1.696138e-01
1.860454e-01
2.036706e-01
2.222318e-01
2.415626e-01
2.614017e-01
2.815286e-01
3.017542e-01
3.219220e-01
3.418547e-01
3.613810e-01
3.802539e-01
3.981350e-01
4.148605e-01
4.303913e-01
4.447828e-01
4.574608e-01
4.684530e-01
4.781687e-01
4.865953e-01
4.931989e-01
4.979194e-01
1.408037e-01
1.558558e-01
1.719783e-01
1.891475e-01
2.074597e-01
2.266584e-01
2.465556e-01
2.668948e-01
2.874599e-01
3.080425e-01
3.284394e-01
3.484420e-01
3.678333e-01
3.863859e-01
4.039055e-01
4.202623e-01
4.353540e-01
4.490405e-01
4.612018e-01
4.718963e-01
4.811165e-01
4.887709e-01
4.946674e-01
4.985627e-01
1.416567e-01
1.575010e-01
1.744152e-01
1.923858e-01
2.114433e-01
2.313163e-01
2.517918e-01
2.726118e-01
2.935514e-01
3.305578e-01
3.130124e-01
2.972916e-01
2.843999e-01
2.715515e-01
2.586077e-01
2.456151e-01
2.326247e-01
2.196565e-01
2.067205e-01
1.937915e-01
1.808163e-01
1.676903e-01
1.536558e-01
1.438396e-01
3.143875e-01
3.349019e-01
3.548760e-01
3.740932e-01
3.923556e-01
4.095046e-01
4.254147e-01
4.399755e-01
4.530985e-01
4.647448e-01
4.748946e-01
4.834903e-01
4.904471e-01
4.956356e-01
4.988845e-01
1.424395e-01
1.591980e-01
1.770455e-01
1.959120e-01
2.157629e-01
2.363135e-01
2.573352e-01
2.785754e-01
2.998077e-01
3.208116e-01
3.413723e-01
3.612681e-01
3.802801e-01
3.982189e-01
4.149463e-01
4.303559e-01
4.443625e-01
4.569109e-01
4.679703e-01
4.774985e-01
4.854401e-01
4.917352e-01
4.963076e-01
4.990784e-01
1.433709e-01
1.612304e-01
1.801245e-01
1.999441e-01
2.205828e-01
2.417631e-01
2.632511e-01
2.848152e-01
3.062456e-01
3.273534e-01
3.479272e-01
3.677147e-01
3.864803e-01
4.040324e-01
4.202719e-01
4.351238e-01
4.485369e-01
4.604730e-01
4.709035e-01
4.797785e-01
4.870718e-01
4.927633e-01
4.968168e-01
4.992178e-01
1.447758e-01
1.639115e-01
1.839452e-01
2.047049e-01
2.260616e-01
2.477841e-01
2.695873e-01
2.913159e-01
3.128365e-01
3.340663e-01
3.546694e-01
3.743110e-01
3.927878e-01
4.098579e-01
4.255121e-01
4.397148e-01
4.525216e-01
4.638347e-01
4.736050e-01
4.817902e-01
4.884639e-01
4.936350e-01
4.972513e-01
4.993389e-01
1.467316e-01
1.675967e-01
1.888609e-01
2.102940e-01
2.323779e-01
2.545899e-01
2.763136e-01
2.978286e-01
3.194620e-01
3.411737e-01
3.617277e-01
3.811078e-01
3.993712e-01
4.157939e-01
4.306191e-01
4.439893e-01
4.564417e-01
4.671367e-01
4.761135e-01
4.834994e-01
4.896603e-01
4.944534e-01
3.537546e-01
3.360476e-01
3.159581e-01
3.055618e-01
2.934061e-01
2.806321e-01
2.675758e-01
2.543879e-01
2.411512e-01
2.278889e-01
2.146226e-01
2.013033e-01
1.879766e-01
1.748474e-01
1.630833e-01
1.503366e-01
4.976965e-01
4.994685e-01
1.510845e-01
1.742760e-01
1.941718e-01
2.166058e-01
2.400788e-01
2.628908e-01
2.830826e-01
3.015750e-01
3.270763e-01
3.491979e-01
3.690599e-01
3.878304e-01
4.070815e-01
4.223016e-01
4.345715e-01
4.476849e-01
4.610268e-01
4.708181e-01
4.779200e-01
4.847818e-01
4.906671e-01
4.954231e-01
4.983094e-01
4.995673e-01
4.995280e-01
4.992866e-01
4.979242e-01
4.995568e-01
4.987525e-01
4.971250e-01
4.950268e-01
4.992853e-01
4.979047e-01
4.960486e-01
4.935938e-01
4.907449e-01
4.987101e-01
4.970239e-01
4.947471e-01
4.919388e-01
4.886429e-01
4.849792e-01
4.993453e-01
4.974707e-01
4.958344e-01
4.932929e-01
4.901005e-01
4.863762e-01
4.822092e-01
4.776472e-01
4.688411e-01
4.991039e-01
4.971842e-01
4.945947e-01
4.916996e-01
4.881338e-01
4.839751e-01
4.793245e-01
4.742732e-01
4.588534e-01
4.995371e-01
4.986138e-01
4.965406e-01
4.936270e-01
4.901234e-01
4.861065e-01
4.814945e-01
4.763439e-01
4.707624e-01
4.648861e-01
4.477338e-01
4.992848e-01
4.978126e-01
4.956316e-01
4.925027e-01
4.886078e-01
4.840934e-01
4.789994e-01
4.733346e-01
4.671683e-01
4.606651e-01
4.540854e-01
4.988033e-01
4.970727e-01
4.945600e-01
4.912155e-01
4.870226e-01
4.820992e-01
4.765348e-01
4.703664e-01
4.636259e-01
4.563726e-01
4.489426e-01
4.417851e-01
4.348002e-01
4.193639e-01
4.994610e-01
4.978201e-01
4.961629e-01
4.934633e-01
4.898476e-01
4.853664e-01
4.800876e-01
4.741051e-01
4.674735e-01
4.602173e-01
4.523623e-01
4.437085e-01
4.354236e-01
4.280836e-01
3.606691e-01
3.757162e-01
4.992814e-01
4.977999e-01
4.953916e-01
4.924054e-01
4.885058e-01
4.837044e-01
4.780690e-01
4.716934e-01
4.646554e-01
4.569473e-01
4.485934e-01
4.397513e-01
4.277671e-01
4.204376e-01
4.141947e-01
3.980695e-01
1.264000e-01
1.264000e-01
1.264000e-01
1.264000e-01
1.264000e-01
1.264000e-01
1.264000e-01
1.264000e-01
1.264000e-01
1.264000e-01
1.264000e-01
1.264000e-01
1.264000e-01
1.264000e-01
1.264000e-01
1.264000e-01
1.264000e-01
1.264000e-01
1.264000e-01
1.264000e-01
1.264000e-01
1.264000e-01
1.264000e-01
1.264000e-01
1.264000e-01
1.264000e-01
1.264000e-01
1.264000e-01
1.264000e-01
1.264000e-01
1.264000e-01
1.264000e-01
1.264000e-01
1.264000e-01
1.264000e-01
1.264000e-01
1.264000e-01
1.264000e-01
1.264000e-01
1.264000e-01
1.264000e-01
1.264000e-01
1.264000e-01
1.264000e-01
1.264000e-01
1.264000e-01
1.264000e-01
1.264000e-01
1.264000e-01
1.264000e-01
1.264000e-01
1.264000e-01
1.264000e-01
1.264000e-01
1.264000e-01
1.264000e-01
1.264000e-01
1.264000e-01
1.264000e-01
1.264000e-01
1.264000e-01
1.264000e-01
1.264000e-01
1.264000e-01
1.264000e-01
1.264000e-01
1.264000e-01
1.264000e-01
1.264000e-01
1.264000e-01
1.264000e-01
1.264000e-01
1.264000e-01
1.264000e-01
1.264000e-01
1.264000e-01
1.264000e-01
1.264000e-01
1.264000e-01
1.264000e-01
1.264000e-01
1.264000e-01
1.264000e-01
1.264000e-01
1.264000e-01
1.264000e-01
1.264000e-01
1.264000e-01
1.264000e-01
1.264000e-01
1.264000e-01
1.264000e-01
1.264000e-01
1.264000e-01
1.264000e-01
1.264000e-01
1.264000e-01
1.264000e-01
1.264000e-01
1.264000e-01
1.264000e-01
1.264000e-01
1.264000e-01
1.264000e-01
1.264000e-01
1.264000e-01
1.264000e-01
1.264000e-01
1.264000e-01
1.264000e-01
1.264000e-01
1.264000e-01
1.264000e-01
1.264000e-01
1.264000e-01
1.264000e-01
1.264000e-01
1.264000e-01
1.264000e-01
1.264000e-01
1.264000e-01
1.264000e-01
1.264000e-01
1.264000e-01
1.264000e-01
1.264000e-01
1.264000e-01
1.264000e-01
1.264000e-01
1.264000e-01
1.264000e-01
1.264000e-01
1.264000e-01
1.264000e-01
1.264000e-01
1.264000e-01
1.264000e-01
1.264000e-01
1.264000e-01
1.264000e-01
1.264000e-01
1.264000e-01
1.264000e-01
1.264000e-01
1.264000e-01
1.264000e-01
1.264000e-01
1.264000e-01
1.264000e-01
1.264000e-01
1.264000e-01
1.264000e-01
1.264000e-01
1.264000e-01
1.264000e-01
1.264000e-01
1.264000e-01
1.264000e-01
1.264000e-01
1.264000e-01
1.264000e-01
1.264000e-01
1.264000e-01
1.264000e-01
1.264000e-01
1.264000e-01
1.264000e-01
1.264000e-01
1.264000e-01
1.264000e-01
1.264000e-01
1.264000e-01
1.264000e-01
1.264000e-01
1.264000e-01
1.264000e-01
1.264000e-01
1.264000e-01
1.264000e-01
1.264000e-01
1.264000e-01
1.264000e-01
1.264000e-01
1.264000e-01
1.264000e-01
1.264000e-01
1.264000e-01
1.264000e-01
1.264000e-01
1.264000e-01
1.264000e-01
1.264000e-01
1.264000e-01
1.264000e-01
1.264000e-01
1.264000e-01
1.264000e-01
1.264000e-01
1.264000e-01
1.264000e-01
1.264000e-01
1.264000e-01
1.264000e-01
1.264000e-01
1.264000e-01
1.264000e-01
1.264000e-01
1.264000e-01
1.264000e-01
1.264000e-01
1.264000e-01
1.264000e-01
1.264000e-01
1.264000e-01
1.264000e-01
1.264000e-01
1.264000e-01
1.264000e-01
1.264000e-01
1.264000e-01
1.264000e-01
1.264000e-01
1.264000e-01
1.264000e-01
1.264000e-01
1.264000e-01
1.264000e-01
1.264000e-01
1.264000e-01
1.264000e-01
1.264000e-01
1.264000e-01
1.264000e-01
1.264000e-01
1.264000e-01
1.264000e-01
1.264000e-01
1.264000e-01
1.264000e-01
1.264000e-01
1.264000e-01
1.264000e-01
1.264000e-01
1.264000e-01
1.264000e-01
1.264000e-01
1.264000e-01
1.264000e-01
1.264000e-01
1.264000e-01
1.264000e-01
1.264000e-01
1.264000e-01
1.264000e-01
1.264000e-01
1.264000e-01
1.264000e-01
1.264000e-01
1.264000e-01
1.264000e-01
1.264000e-01
1.264000e-01
1.264000e-01
1.264000e-01
1.264000e-01
1.264000e-01
1.264000e-01
1.264000e-01
1.264000e-01
1.264000e-01
1.264000e-01
1.264000e-01
1.264000e-01
1.264000e-01
1.264000e-01
1.264000e-01
1.264000e-01
1.264000e-01
1.264000e-01
1.264000e-01
1.264000e-01
1.264000e-01
1.264000e-01
1.264000e-01
1.264000e-01
1.264000e-01
1.264000e-01
1.264000e-01
1.264000e-01
1.264000e-01
1.264000e-01
1.264000e-01
1.264000e-01
1.264000e-01
1.264000e-01
1.264000e-01
1.264000e-01
1.264000e-01
1.264000e-01
1.264000e-01
1.264000e-01
1.264000e-01
1.264000e-01
1.264000e-01
1.264000e-01
1.264000e-01
1.264000e-01
1.264000e-01
1.264000e-01
1.264000e-01
1.264000e-01
1.264000e-01
1.264000e-01
1.264000e-01
1.264000e-01
1.264000e-01
1.264000e-01
1.264000e-01
1.264000e-01
1.264000e-01
1.264000e-01
1.264000e-01
1.264000e-01
1.264000e-01
1.264000e-01
1.264000e-01
1.264000e-01
1.264000e-01
1.264000e-01
1.264000e-01
1.264000e-01
1.264000e-01
1.264000e-01
1.264000e-01
1.264000e-01
1.264000e-01
1.264000e-01
1.264000e-01
1.264000e-01
1.264000e-01
1.264000e-01
1.264000e-01
1.264000e-01
1.264000e-01
1.264000e-01
1.264000e-01
1.264000e-01
1.264000e-01
1.264000e-01
1.264000e-01
1.264000e-01
1.264000e-01
1.264000e-01
1.264000e-01
1.264000e-01
1.264000e-01
1.264000e-01
1.264000e-01
1.264000e-01
1.264000e-01
1.264000e-01
1.264000e-01
1.264000e-01
1.264000e-01
1.264000e-01
1.264000e-01
1.264000e-01
1.264000e-01
1.264000e-01
1.264000e-01
2.764000e-01
2.764000e-01
2.764000e-01
2.764000e-01
2.764000e-01
2.764000e-01
2.764000e-01
2.764000e-01
2.764000e-01
2.764000e-01
2.764000e-01
2.764000e-01
2.764000e-01
2.764000e-01
2.764000e-01
2.764000e-01
2.764000e-01
2.764000e-01
2.764000e-01
2.764000e-01
2.764000e-01
2.764000e-01
2.764000e-01
2.764000e-01
2.764000e-01
2.764000e-01
2.764000e-01
2.764000e-01
2.764000e-01
2.764000e-01
2.764000e-01
2.764000e-01
2.764000e-01
2.279402e-01
2.207645e-01
2.390839e-01
2.250648e-01
2.308154e-01
2.169095e-01
2.163697e-01
2.104069e-01
2.060836e-01
2.281314e-01
2.215992e-01
2.156900e-01
2.266839e-01
2.143710e-01
2.237720e-01
1.442168e-01
2.745404e-01
2.715789e-01
2.649159e-01
2.679928e-01
2.657631e-01
2.597954e-01
2.661405e-01
2.622782e-01
2.582930e-01
2.590031e-01
2.542179e-01
2.492309e-01
2.546968e-01
2.496218e-01
2.446311e-01
2.389277e-01
2.725495e-01
2.497424e-01
2.442375e-01
2.386102e-01
2.351074e-01
2.276835e-01
2.251284e-01
2.300755e-01
2.178757e-01
2.451851e-01
2.349113e-01
2.753014e-01
2.229857e-01
2.087794e-01
2.152948e-01
2.094729e-01
2.033929e-01
1.985565e-01
1.962481e-01
2.007073e-01
1.947543e-01
1.900511e-01
1.864974e-01
1.914250e-01
1.842199e-01
1.806985e-01
1.769850e-01
1.734830e-01
1.707258e-01
1.675139e-01
1.605086e-01
1.580329e-01
1.476222e-01
1.843213e-01
1.692248e-01
1.572438e-01
1.475532e-01
1.369183e-01
2.647630e-01
2.596478e-01
2.756394e-01
2.729695e-01
2.744913e-01
2.687779e-01
2.708601e-01
2.659790e-01
2.602322e-01
2.686255e-01
2.720715e-01
2.749703e-01
1.626382e-01
1.510939e-01
1.379631e-01
1.620634e-01
1.480931e-01
1.348140e-01
2.644394e-01
2.593212e-01
2.755467e-01
2.727649e-01
2.743367e-01
2.685295e-01
2.706076e-01
2.656318e-01
2.598105e-01
1.620895e-01
1.508310e-01
1.379907e-01
1.626584e-01
1.485031e-01
1.349518e-01
2.754761e-01
2.725654e-01
2.740911e-01
2.682313e-01
2.701907e-01
2.652542e-01
2.597679e-01
1.632374e-01
1.514776e-01
1.379984e-01
2.752371e-01
2.715143e-01
2.677161e-01
2.649091e-01
2.614013e-01
2.599281e-01
2.513082e-01
1.624949e-01
1.492998e-01
1.357038e-01
1.874486e-01
1.742698e-01
1.608182e-01
1.459282e-01
1.347732e-01
2.653755e-01
2.604901e-01
2.755919e-01
2.728907e-01
2.744099e-01
2.686781e-01
2.707853e-01
2.657479e-01
2.600335e-01
1.649941e-01
1.529878e-01
1.392024e-01
1.627010e-01
1.490107e-01
2.553039e-01
2.620720e-01
2.668812e-01
2.707872e-01
1.353103e-01
2.755428e-01
2.729203e-01
2.691362e-01
1.647561e-01
1.529433e-01
1.383679e-01
2.628766e-01
2.573595e-01
2.752705e-01
2.721729e-01
2.739281e-01
2.676458e-01
2.696061e-01
2.615844e-01
2.637294e-01
2.540166e-01
2.572135e-01
1.831751e-01
1.708519e-01
1.585562e-01
1.474007e-01
1.361095e-01
1.593286e-01
1.462305e-01
1.341664e-01
2.752583e-01
2.719155e-01
2.734837e-01
2.670923e-01
2.692841e-01
2.642198e-01
2.584744e-01
2.441173e-01
1.606618e-01
1.502416e-01
1.372481e-01
2.757702e-01
2.724197e-01
2.677082e-01
2.643275e-01
2.607403e-01
2.590984e-01
2.499989e-01
1.619889e-01
1.483308e-01
1.352501e-01
1.859497e-01
1.730758e-01
1.600044e-01
1.454391e-01
1.345220e-01
2.640264e-01
2.587947e-01
2.754050e-01
2.724807e-01
2.741743e-01
2.681505e-01
2.702065e-01
2.647766e-01
2.587339e-01
1.637850e-01
1.520823e-01
1.387220e-01
1.608899e-01
1.478689e-01
1.348084e-01
2.644431e-01
2.593215e-01
2.754305e-01
2.350140e-01
2.724550e-01
2.741961e-01
2.680154e-01
2.703619e-01
2.653099e-01
2.594064e-01
1.621839e-01
1.505892e-01
1.375226e-01
1.599454e-01
1.472013e-01
1.345258e-01
2.754042e-01
2.723616e-01
2.738692e-01
2.679863e-01
2.695569e-01
2.637510e-01
2.577514e-01
1.608366e-01
1.501778e-01
1.371632e-01
2.752616e-01
2.729153e-01
2.697041e-01
2.631508e-01
2.637290e-01
2.577893e-01
2.533780e-01
1.608909e-01
1.475083e-01
1.347502e-01
1.898450e-01
1.768803e-01
1.606306e-01
1.480358e-01
1.368273e-01
2.753540e-01
2.720343e-01
2.731293e-01
2.527226e-01
2.595745e-01
2.649105e-01
2.690107e-01
2.716401e-01
2.746856e-01
2.671681e-01
2.687544e-01
2.632022e-01
2.572676e-01
1.607733e-01
1.497810e-01
1.375406e-01
2.754742e-01
2.712541e-01
2.641231e-01
2.587126e-01
2.517155e-01
1.614485e-01
1.481024e-01
1.348645e-01
1.377780e-01
2.692367e-01
2.666641e-01
2.620487e-01
2.616595e-01
2.540716e-01
2.525960e-01
2.550577e-01
2.462116e-01
2.365951e-01
2.405871e-01
2.451357e-01
2.477834e-01
2.277123e-01
2.334481e-01
2.383865e-01
2.375257e-01
2.097312e-01
1.990902e-01
1.908378e-01
1.825477e-01
1.735127e-01
1.632169e-01
1.531777e-01
1.465590e-01
1.378181e-01
1.522374e-01
1.572515e-01
1.662653e-01
1.670393e-01
1.817758e-01
1.785041e-01
1.758533e-01
1.921814e-01
1.883682e-01
1.852863e-01
1.940423e-01
2.058042e-01
2.011676e-01
1.972434e-01
2.183847e-01
2.140880e-01
2.091550e-01
2.054271e-01
2.026602e-01
2.309635e-01
2.116250e-01
2.204672e-01
2.248867e-01
2.735802e-01
1.369015e-01
2.750115e-01
2.747177e-01
2.731613e-01
2.707852e-01
2.757385e-01
2.651592e-01
2.624091e-01
2.590543e-01
2.358220e-01
2.423234e-01
2.502001e-01
2.572555e-01
2.630463e-01
2.675972e-01
2.711619e-01
2.741931e-01
2.757403e-01
2.742286e-01
2.715953e-01
2.678274e-01
2.461622e-01
2.754439e-01
2.733953e-01
2.704753e-01
2.662976e-01
2.614789e-01
2.568314e-01
2.521390e-01
2.759609e-01
2.748342e-01
2.718807e-01
2.696995e-01
2.642483e-01
2.589732e-01
2.541658e-01
2.502517e-01
2.423408e-01
2.356057e-01
1.423606e-01
1.347153e-01
1.642234e-01
1.562120e-01
1.458442e-01
1.375923e-01
1.671986e-01
1.542240e-01
2.002866e-01
1.938772e-01
1.840145e-01
1.710523e-01
1.602664e-01
1.508104e-01
1.419694e-01
1.352890e-01
1.848635e-01
1.745744e-01
2.624709e-01
2.548211e-01
2.465431e-01
2.362827e-01
2.245185e-01
2.114812e-01
1.979160e-01
2.755753e-01
2.735750e-01
2.691352e-01
2.623481e-01
2.538105e-01
2.430721e-01
2.319184e-01
2.199268e-01
2.077339e-01
1.972619e-01
1.853558e-01
1.752560e-01
1.639393e-01
1.506345e-01
1.394050e-01
2.135041e-01
2.053527e-01
1.955591e-01
1.843017e-01
1.737077e-01
1.639951e-01
1.549174e-01
1.466551e-01
1.381887e-01
1.349301e-01
2.490404e-01
2.406198e-01
2.296393e-01
2.168162e-01
1.546862e-01
1.490394e-01
1.386629e-01
2.008996e-01
1.873480e-01
1.739195e-01
1.600786e-01
1.472629e-01
1.369546e-01
2.621286e-01
2.543751e-01
2.457473e-01
2.348952e-01
2.230235e-01
2.104414e-01
1.974223e-01
1.839664e-01
1.719837e-01
1.591879e-01
2.753684e-01
2.733332e-01
2.689134e-01
2.627823e-01
2.538429e-01
2.410225e-01
2.292224e-01
2.167861e-01
2.041726e-01
1.925296e-01
2.753559e-01
2.721582e-01
2.676628e-01