VARIABLES = "X" "Y" "Z" "FREF"
ZONE T="instant 104"
STRANDID=0, SOLUTIONTIME=0
Nodes=1235, Elements=2466
ZONETYPE=FETriangle
DATAPACKING=BLOCK
VARLOCATION = ([1-3]=NODAL, [4]=CELLCENTERED)
5.000000e-01
3.099220e-01
3.275422e-01
3.482121e-01
3.691439e-01
3.873050e-01
4.041851e-01
4.231745e-01
4.412031e-01
4.568872e-01
4.695858e-01
4.794602e-01
4.864103e-01
4.918046e-01
4.960586e-01
4.984638e-01
4.996821e-01
2.954000e-01
2.954000e-01
2.954000e-01
2.954000e-01
4.448103e-01
4.421892e-01
4.371304e-01
4.295717e-01
4.196248e-01
4.073636e-01
3.929987e-01
3.773567e-01
3.600174e-01
3.414150e-01
3.240077e-01
3.079837e-01
4.454000e-01
4.809671e-01
4.599832e-01
3.244187e-01
3.195515e-01
3.453811e-01
3.697851e-01
3.907076e-01
4.085277e-01
4.243241e-01
4.379630e-01
4.495089e-01
4.612120e-01
4.668110e-01
4.735685e-01
2.954000e-01
4.995519e-01
4.975846e-01
4.935827e-01
4.869928e-01
4.780298e-01
4.683432e-01
4.563766e-01
4.419325e-01
4.276565e-01
4.130855e-01
3.950477e-01
3.747307e-01
3.547449e-01
3.377195e-01
3.217027e-01
3.076535e-01
5.000000e-01
4.620212e-01
4.819195e-01
4.454000e-01
3.103158e-01
3.284985e-01
3.491226e-01
3.700605e-01
3.889500e-01
4.031222e-01
4.147381e-01
4.254281e-01
4.331279e-01
4.389113e-01
4.429206e-01
4.449450e-01
2.954000e-01
2.954000e-01
2.954000e-01
4.712097e-01
4.679576e-01
4.628258e-01
4.555692e-01
4.461696e-01
4.351540e-01
4.218285e-01
4.048948e-01
3.823508e-01
3.620262e-01
3.415888e-01
3.198200e-01
5.000000e-01
5.000000e-01
5.000000e-01
5.000000e-01
5.000000e-01
5.000000e-01
5.000000e-01
5.000000e-01
5.000000e-01
5.000000e-01
5.000000e-01
5.000000e-01
5.000000e-01
5.000000e-01
5.000000e-01
5.000000e-01
5.000000e-01
5.000000e-01
5.000000e-01
5.000000e-01
5.000000e-01
5.000000e-01
5.000000e-01
5.000000e-01
5.000000e-01
5.000000e-01
5.000000e-01
5.000000e-01
5.000000e-01
5.000000e-01
5.000000e-01
5.000000e-01
5.000000e-01
2.954000e-01
2.954000e-01
2.954000e-01
2.954000e-01
2.954000e-01
2.954000e-01
2.954000e-01
2.954000e-01
2.954000e-01
2.954000e-01
2.954000e-01
2.954000e-01
2.954000e-01
2.954000e-01
2.954000e-01
2.954000e-01
2.954000e-01
2.954000e-01
2.954000e-01
2.954000e-01
2.954000e-01
2.954000e-01
2.954000e-01
2.954000e-01
2.954000e-01
2.954000e-01
2.954000e-01
2.954000e-01
2.954000e-01
2.954000e-01
2.954000e-01
2.954000e-01
2.954000e-01
4.496565e-01
4.408936e-01
4.461529e-01
4.265952e-01
4.423845e-01
4.343573e-01
4.580811e-01
4.627987e-01
4.378314e-01
4.539826e-01
4.468408e-01
4.504569e-01
4.394602e-01
4.532004e-01
3.179003e-01
4.280101e-01
4.428021e-01
4.557274e-01
4.239516e-01
4.327060e-01
4.408735e-01
4.565935e-01
4.791570e-01
4.404360e-01
4.332600e-01
4.479643e-01
4.590155e-01
4.681379e-01
4.837700e-01
4.846618e-01
4.802880e-01
4.861470e-01
4.902210e-01
4.922597e-01
3.292985e-01
3.356086e-01
3.217949e-01
3.103574e-01
3.438022e-01
3.492985e-01
3.616040e-01
3.643571e-01
3.737765e-01
3.815322e-01
3.738171e-01
3.878597e-01
3.880257e-01
3.948810e-01
4.007532e-01
4.010216e-01
4.055911e-01
4.085831e-01
4.133567e-01
4.184661e-01
4.118053e-01
4.181560e-01
4.248040e-01
4.235998e-01
4.301370e-01
4.345345e-01
4.724347e-01
4.724250e-01
3.553452e-01
3.416618e-01
3.283762e-01
3.144982e-01
4.680461e-01
4.636672e-01
4.569092e-01
4.482744e-01
4.657350e-01
4.600401e-01
4.769813e-01
4.760552e-01
4.739294e-01
4.705747e-01
3.365819e-01
3.558769e-01
3.629422e-01
3.778105e-01
3.825425e-01
3.769693e-01
4.030853e-01
4.035189e-01
3.967671e-01
3.911541e-01
4.248649e-01
4.403086e-01
4.223860e-01
4.132114e-01
4.134289e-01
4.043301e-01
4.970151e-01
4.936741e-01
4.936050e-01
4.886238e-01
4.890072e-01
4.834484e-01
4.819128e-01
4.823807e-01
4.751903e-01
3.749685e-01
3.616549e-01
3.482358e-01
3.349863e-01
3.224996e-01
4.770249e-01
4.737337e-01
4.739017e-01
4.554074e-01
4.656511e-01
4.630335e-01
4.650618e-01
4.670517e-01
4.697196e-01
4.155898e-01
4.345160e-01
4.495117e-01
4.624901e-01
4.568112e-01
4.288283e-01
4.448862e-01
3.103867e-01
3.127305e-01
3.267937e-01
3.125372e-01
3.155605e-01
3.315732e-01
3.446677e-01
3.281164e-01
3.382753e-01
3.515564e-01
3.641996e-01
3.150631e-01
3.311840e-01
3.453973e-01
3.584605e-01
3.719807e-01
3.847404e-01
3.102308e-01
3.211746e-01
3.360512e-01
3.505721e-01
3.646012e-01
3.783161e-01
3.926468e-01
4.064882e-01
4.206871e-01
3.143188e-01
3.284560e-01
3.427483e-01
3.561377e-01
3.696878e-01
3.834992e-01
3.969578e-01
4.137820e-01
4.248060e-01
4.320109e-01
3.933504e-01
3.807964e-01
3.681255e-01
3.552317e-01
3.417221e-01
3.266238e-01
3.137087e-01
4.989162e-01
4.996060e-01
4.962928e-01
4.981413e-01
4.994683e-01
4.920701e-01
4.952392e-01
4.976612e-01
4.993538e-01
4.815264e-01
4.867244e-01
4.908676e-01
4.943603e-01
4.972118e-01
4.992154e-01
4.638640e-01
4.735027e-01
4.802030e-01
4.850164e-01
4.894262e-01
4.933522e-01
4.966040e-01
4.989802e-01
4.833343e-01
4.895154e-01
4.955148e-01
4.983972e-01
4.540188e-01
4.991444e-01
4.656804e-01
4.733435e-01
4.775228e-01
4.826212e-01
4.876272e-01
4.919372e-01
4.955446e-01
4.983764e-01
3.118973e-01
3.295130e-01
3.481391e-01
3.674820e-01
3.868134e-01
4.052569e-01
4.222864e-01
4.376311e-01
4.512577e-01
4.636294e-01
4.755476e-01
4.840292e-01
4.907372e-01
4.957252e-01
4.988538e-01
3.132674e-01
4.115069e-01
3.986143e-01
3.867914e-01
3.754083e-01
3.625439e-01
3.486167e-01
3.350587e-01
3.226634e-01
3.318669e-01
3.513791e-01
3.711488e-01
3.903328e-01
4.083843e-01
4.250090e-01
4.400725e-01
4.536323e-01
4.657794e-01
4.762601e-01
4.846859e-01
4.912803e-01
4.960624e-01
4.990030e-01
3.142061e-01
3.335478e-01
3.535016e-01
3.734546e-01
3.925485e-01
4.104140e-01
4.268245e-01
4.417216e-01
4.550835e-01
4.668603e-01
4.769065e-01
4.851515e-01
4.916009e-01
4.962481e-01
4.990604e-01
3.148013e-01
3.345620e-01
3.547774e-01
3.747862e-01
3.938532e-01
4.116114e-01
4.279147e-01
4.426857e-01
4.558877e-01
4.674529e-01
4.773158e-01
4.854309e-01
4.917812e-01
4.963392e-01
4.990850e-01
3.151280e-01
3.351206e-01
3.554476e-01
3.755019e-01
3.945364e-01
4.122535e-01
4.284914e-01
4.431909e-01
4.562970e-01
4.677621e-01
4.775336e-01
4.855804e-01
4.918703e-01
4.963824e-01
4.990954e-01
3.152940e-01
3.353852e-01
3.557761e-01
3.758333e-01
3.948643e-01
4.125535e-01
4.287644e-01
4.434243e-01
4.564872e-01
4.679045e-01
4.776372e-01
4.856483e-01
4.500568e-01
4.593227e-01
4.668931e-01
4.731780e-01
4.793459e-01
4.849958e-01
4.898515e-01
4.939442e-01
4.970956e-01
4.990207e-01
4.997802e-01
4.919112e-01
4.964006e-01
4.991000e-01
3.153683e-01
3.355060e-01
3.559104e-01
3.759768e-01
3.949976e-01
4.126802e-01
4.288763e-01
4.435209e-01
4.565641e-01
4.679637e-01
4.776789e-01
4.856766e-01
4.919275e-01
4.964083e-01
4.991021e-01
3.154056e-01
3.355507e-01
3.559643e-01
3.760266e-01
3.950493e-01
4.127259e-01
4.289181e-01
4.435557e-01
4.565924e-01
4.679847e-01
4.776944e-01
4.856869e-01
4.919336e-01
4.312541e-01
4.150841e-01
4.026511e-01
3.949702e-01
3.833686e-01
3.700069e-01
3.560328e-01
3.430332e-01
3.284309e-01
3.139956e-01
4.964116e-01
4.991032e-01
3.154163e-01
3.355639e-01
3.559791e-01
3.760509e-01
3.950693e-01
4.127464e-01
4.289346e-01
4.435700e-01
4.566033e-01
4.679934e-01
4.777007e-01
4.856912e-01
4.919363e-01
4.964124e-01
4.991033e-01
3.153672e-01
3.355657e-01
3.560089e-01
3.760769e-01
3.950994e-01
4.127697e-01
4.289554e-01
4.435860e-01
4.566171e-01
4.680042e-01
4.777095e-01
4.856973e-01
4.919396e-01
4.964136e-01
4.991031e-01
3.154732e-01
3.356604e-01
3.560805e-01
3.761585e-01
3.951708e-01
4.128360e-01
4.290087e-01
4.436321e-01
4.566548e-01
4.680371e-01
4.777349e-01
4.857167e-01
4.919517e-01
4.964193e-01
4.991043e-01
3.155755e-01
3.357631e-01
3.562505e-01
3.763489e-01
3.953659e-01
4.130038e-01
4.291550e-01
4.437546e-01
4.567633e-01
4.681269e-01
4.778100e-01
4.857716e-01
4.919893e-01
4.964392e-01
4.991101e-01
3.155162e-01
3.359916e-01
3.566465e-01
3.768208e-01
3.958069e-01
4.133948e-01
4.294885e-01
4.440517e-01
4.570197e-01
4.683511e-01
4.779888e-01
4.705772e-01
4.764962e-01
4.819307e-01
4.868741e-01
4.911075e-01
4.944919e-01
4.973556e-01
4.992642e-01
4.859092e-01
4.920806e-01
4.964897e-01
4.991256e-01
3.158970e-01
3.367215e-01
3.576134e-01
3.778044e-01
3.966959e-01
4.141551e-01
4.301682e-01
4.446590e-01
4.575668e-01
4.688148e-01
4.783699e-01
4.861931e-01
4.922739e-01
4.965943e-01
4.991564e-01
3.168362e-01
3.383503e-01
3.595165e-01
3.795857e-01
3.981782e-01
4.154463e-01
4.313659e-01
4.457843e-01
4.585653e-01
4.696696e-01
4.790512e-01
4.867187e-01
4.926262e-01
4.639621e-01
4.967822e-01
4.992052e-01
3.185341e-01
3.416250e-01
3.628762e-01
3.822221e-01
4.001892e-01
4.173508e-01
4.333199e-01
4.476512e-01
4.602076e-01
4.710050e-01
4.801050e-01
4.875884e-01
4.932312e-01
4.970671e-01
4.992522e-01
3.201681e-01
3.379223e-01
3.624737e-01
3.867209e-01
3.220407e-01
3.487036e-01
3.679498e-01
3.845192e-01
4.023731e-01
4.200622e-01
4.363468e-01
4.505767e-01
4.626068e-01
4.727236e-01
4.813647e-01
4.890872e-01
4.943565e-01
4.972228e-01
4.992276e-01
4.994764e-01
4.991949e-01
4.977117e-01
4.995075e-01
4.747936e-01
4.797963e-01
4.845436e-01
4.888852e-01
4.926146e-01
4.955426e-01
4.974316e-01
4.993713e-01
4.985755e-01
4.967583e-01
4.944690e-01
4.992235e-01
4.976690e-01
4.955318e-01
4.927650e-01
4.896230e-01
4.986190e-01
4.967345e-01
4.941240e-01
4.908770e-01
4.871428e-01
4.831885e-01
2.954000e-01
2.954000e-01
2.954000e-01
2.954000e-01
2.954000e-01
2.954000e-01
2.954000e-01
2.954000e-01
2.954000e-01
2.954000e-01
2.954000e-01
2.954000e-01
2.954000e-01
2.954000e-01
2.954000e-01
2.954000e-01
2.954000e-01
2.954000e-01
2.954000e-01
2.954000e-01
2.954000e-01
2.954000e-01
2.954000e-01
2.954000e-01
2.954000e-01
2.954000e-01
2.954000e-01
2.954000e-01
2.954000e-01
2.954000e-01
2.954000e-01
2.954000e-01
2.954000e-01
2.954000e-01
2.954000e-01
2.954000e-01
2.954000e-01
2.954000e-01
2.954000e-01
2.954000e-01
2.954000e-01
2.954000e-01
2.954000e-01
2.954000e-01
2.954000e-01
2.954000e-01
2.954000e-01
2.954000e-01
2.954000e-01
2.954000e-01
2.954000e-01
2.954000e-01
2.954000e-01
2.954000e-01
2.954000e-01
2.954000e-01
2.954000e-01
2.954000e-01
2.954000e-01
2.954000e-01
2.954000e-01
2.954000e-01
2.954000e-01
2.954000e-01
2.954000e-01
2.954000e-01
2.954000e-01
2.954000e-01
2.954000e-01
2.954000e-01
2.954000e-01
2.954000e-01
2.954000e-01
2.954000e-01
2.954000e-01
2.954000e-01
2.954000e-01
2.954000e-01
2.954000e-01
2.954000e-01
2.954000e-01
2.954000e-01
2.954000e-01
2.954000e-01
2.954000e-01
2.954000e-01
2.954000e-01
2.954000e-01
2.954000e-01
2.954000e-01
2.954000e-01
2.954000e-01
2.954000e-01
4.454000e-01
4.454000e-01
4.454000e-01
4.454000e-01
4.454000e-01
4.454000e-01
4.454000e-01
4.454000e-01
4.454000e-01
4.454000e-01
4.454000e-01
4.454000e-01
4.454000e-01
4.454000e-01
4.454000e-01
4.454000e-01
4.454000e-01
4.454000e-01
4.454000e-01
4.454000e-01
4.454000e-01
4.454000e-01
4.454000e-01
4.454000e-01
4.454000e-01
4.454000e-01
4.454000e-01
4.454000e-01
4.454000e-01
4.454000e-01
4.454000e-01
4.454000e-01
4.454000e-01
4.137322e-01
3.880455e-01
3.903667e-01
4.110403e-01
4.048292e-01
4.168673e-01
4.416274e-01
3.548719e-01
4.265754e-01
4.376083e-01
4.368785e-01
4.313879e-01
4.336282e-01
4.266767e-01
4.217076e-01
4.279604e-01
4.228092e-01
4.160603e-01
4.141426e-01
4.104655e-01
4.133569e-01
4.034463e-01
4.438140e-01
4.447648e-01
4.001845e-01
4.024432e-01
4.024901e-01
3.994177e-01
3.783036e-01
3.909114e-01
3.821058e-01
3.698550e-01
3.733851e-01
3.667076e-01
3.494944e-01
4.069482e-01
3.957982e-01
3.822476e-01
3.734432e-01
3.722074e-01
3.732684e-01
3.708107e-01
4.193108e-01
4.073727e-01
3.955697e-01
4.076419e-01
3.962778e-01
3.817164e-01
3.703340e-01
4.400952e-01
4.424539e-01
4.443990e-01
3.684345e-01
3.340924e-01
3.510341e-01
3.519452e-01
3.817203e-01
3.712513e-01
3.678829e-01
3.944896e-01
3.911790e-01
3.857368e-01
3.807581e-01
4.068006e-01
4.024068e-01
3.966360e-01
3.911589e-01
4.432374e-01
4.401813e-01
4.316103e-01
4.317353e-01
4.188028e-01
4.179259e-01
4.232473e-01
4.270041e-01
3.991403e-01
4.102607e-01
4.213882e-01
4.449204e-01
4.449414e-01
4.449723e-01
4.449349e-01
4.448712e-01
4.449231e-01
4.448745e-01
4.448632e-01
4.340204e-01
4.377664e-01
4.409019e-01
4.434500e-01
4.447522e-01
4.450259e-01
4.451313e-01
4.449837e-01
4.450571e-01
4.447760e-01
4.408366e-01
4.440405e-01
4.438334e-01
4.422494e-01
4.395838e-01
4.362494e-01
4.447789e-01
4.433132e-01
4.407077e-01
4.375213e-01
4.334554e-01
4.294629e-01
4.444737e-01
4.422884e-01
4.392452e-01
4.354426e-01
4.307225e-01
4.241463e-01
4.215715e-01
3.129376e-01
3.306987e-01
3.138456e-01
3.608394e-01
3.470203e-01
3.315819e-01
3.145764e-01
3.755661e-01
3.625880e-01
3.486130e-01
3.335084e-01
4.255429e-01
4.307019e-01
4.351114e-01
4.387509e-01
4.427309e-01
4.444796e-01
3.163128e-01
4.440031e-01
4.408798e-01
4.353821e-01
4.274949e-01
4.163350e-01
4.034444e-01
3.887095e-01
3.735481e-01
3.566285e-01
3.344392e-01
3.184341e-01
4.025108e-01
3.899483e-01
3.772146e-01
3.646409e-01
3.516206e-01
3.373475e-01
3.205659e-01
3.132510e-01
3.655380e-01
3.434341e-01
3.243939e-01
4.239274e-01
4.122842e-01
4.017855e-01
3.886342e-01
4.436975e-01
4.405135e-01
4.340554e-01
4.440597e-01
4.395513e-01
4.327577e-01
4.249886e-01
4.134407e-01
4.020264e-01
3.911820e-01
3.770193e-01
3.598793e-01
3.407254e-01
3.194286e-01
3.568094e-01
3.380574e-01
3.174237e-01
4.247101e-01
4.127626e-01
4.017927e-01
3.873918e-01
4.443519e-01
4.416473e-01
4.349985e-01
4.438333e-01
4.386112e-01
3.999976e-01
3.872587e-01
3.760975e-01
3.637963e-01
3.497385e-01
3.337659e-01
3.179627e-01
3.059890e-01
4.323631e-01
4.269990e-01
4.177237e-01
4.015482e-01
3.849333e-01
3.717431e-01
3.553440e-01
3.367597e-01
3.166231e-01
3.551123e-01
3.363403e-01
3.163608e-01
4.281401e-01
4.179785e-01
4.048833e-01
3.896307e-01
4.438222e-01
4.402454e-01
4.345529e-01
4.442653e-01
4.406828e-01
4.345272e-01
4.265507e-01
4.151993e-01
4.035446e-01
3.884195e-01
3.727864e-01
3.552209e-01
3.362471e-01
3.162657e-01
3.551982e-01
4.146305e-01
3.361000e-01
3.161620e-01
4.440024e-01
4.398429e-01
4.336846e-01
4.257431e-01
4.162272e-01
4.059720e-01
3.913376e-01
3.726374e-01
3.546904e-01
3.357286e-01
3.159322e-01
4.233562e-01
4.133788e-01
4.030759e-01
3.885802e-01
4.433417e-01
4.395700e-01
4.327343e-01
4.437228e-01
4.386188e-01
3.838286e-01
3.720529e-01
3.590044e-01
3.462640e-01
3.316949e-01
3.148742e-01
4.315626e-01
4.243465e-01
4.145923e-01
4.010701e-01
3.856846e-01
3.712576e-01
3.538677e-01
3.350657e-01
3.155008e-01
3.527848e-01
3.339139e-01
3.146758e-01
4.433813e-01
4.395795e-01
4.315036e-01
4.432257e-01
4.367362e-01
4.298069e-01
4.217756e-01
4.112120e-01
3.989463e-01
3.849136e-01
3.688817e-01
3.506601e-01
3.316775e-01
3.130759e-01
4.434562e-01
4.394553e-01
4.329143e-01
4.250795e-01
4.141968e-01
4.011590e-01
3.840070e-01
3.669404e-01
3.464985e-01
3.271101e-01
3.117388e-01
4.430581e-01
4.399249e-01
4.334547e-01
4.258286e-01
4.150665e-01
4.019353e-01
3.862968e-01
3.644082e-01
3.476207e-01
3.308457e-01
3.152927e-01
4.433689e-01
4.412402e-01
4.366039e-01
4.277299e-01
4.169732e-01
3.695470e-01
3.537588e-01
3.401165e-01
3.297350e-01
3.137411e-01
4.029237e-01
3.888004e-01
3.741253e-01
3.577722e-01
3.377573e-01
3.179322e-01
3.625977e-01
3.444896e-01
3.213130e-01
4.440849e-01
4.405891e-01
4.346638e-01
4.259248e-01
4.153123e-01
4.037044e-01
3.909615e-01
3.762184e-01
3.591248e-01
3.397312e-01
3.180336e-01
4.250593e-01
4.139427e-01
3.997499e-01
3.858212e-01
4.435639e-01
4.394187e-01
4.326924e-01
4.439575e-01
4.399432e-01
4.333468e-01
4.231778e-01
4.099867e-01
3.987800e-01
3.874779e-01
3.728632e-01
3.559248e-01
3.370545e-01
3.323570e-01
3.171066e-01
3.167181e-01
3.537545e-01
3.353957e-01
3.158378e-01
4.240268e-01
4.113343e-01
3.973179e-01
3.840077e-01
4.435117e-01
4.400700e-01
4.332056e-01
4.438173e-01
4.386488e-01
4.311064e-01
4.225210e-01
4.122001e-01
3.987169e-01
3.821284e-01
3.687688e-01
3.522897e-01
3.340619e-01
3.150442e-01
3.507108e-01
3.325943e-01
3.145391e-01
4.441235e-01
4.410372e-01
4.344164e-01
3.129704e-01
4.436704e-01
4.380917e-01
4.316972e-01
4.257004e-01
4.155326e-01
4.029757e-01
3.857462e-01
3.657159e-01
3.469607e-01
3.322372e-01
3.150646e-01
4.693043e-01
4.743876e-01
4.727410e-01
4.726259e-01
4.727558e-01
4.726973e-01
4.727175e-01
4.727041e-01
4.725408e-01
4.725997e-01
4.725168e-01
4.725846e-01
4.724868e-01
4.725656e-01
4.725213e-01
4.724149e-01
4.725142e-01
4.725038e-01
4.726210e-01
4.726388e-01
4.725915e-01
4.725387e-01
4.724735e-01
4.723569e-01
4.722413e-01
4.725541e-01
4.724151e-01
4.724349e-01
4.724451e-01
4.726858e-01
4.725996e-01
4.725235e-01
-4.625929e-18
3.923626e-01
3.777779e-01
3.588152e-01
3.372429e-01
3.162196e-01
2.943373e-01
2.663144e-01
2.352441e-01
2.031111e-01
1.717242e-01
1.418375e-01
1.157800e-01
9.015676e-02
6.265690e-02
3.916391e-02
1.782593e-02
4.034090e-01
3.540866e-01
3.788975e-01
3.333467e-01
2.291176e-02
5.338441e-02
8.542948e-02
1.176833e-01
1.493192e-01
1.801001e-01
2.096025e-01
2.366074e-01
2.622377e-01
2.860366e-01
3.056144e-01
3.217564e-01
-1.272131e-17
0.000000e+00
0.000000e+00
3.247763e-01
3.482111e-01
3.233726e-01
2.966727e-01
2.653324e-01
2.366972e-01
2.068659e-01
1.760644e-01
1.445202e-01
1.094618e-01
7.313709e-02
3.796969e-02
4.034090e-01
2.116468e-02
4.908751e-02
7.985084e-02
1.133049e-01
1.465861e-01
1.750848e-01
2.042556e-01
2.338711e-01
2.590559e-01
2.817098e-01
3.064919e-01
3.310240e-01
3.523578e-01
3.687080e-01
3.827628e-01
3.941438e-01
-4.625929e-18
0.000000e+00
0.000000e+00
5.782412e-18
3.195079e-01
3.007821e-01
2.765765e-01
2.478636e-01
2.170232e-01
1.894035e-01
1.623991e-01
1.318790e-01
1.038333e-01
7.574958e-02
4.693118e-02
2.012832e-02
3.333467e-01
3.800167e-01
3.547536e-01
2.894705e-02
6.240734e-02
9.341098e-02
1.239401e-01
1.537419e-01
1.829712e-01
2.122450e-01
2.460410e-01
2.768539e-01
3.029534e-01
3.263986e-01
3.513004e-01
-1.387779e-17
-1.387779e-17
-1.387779e-17
-1.387779e-17
-1.387779e-17
-1.387779e-17
-1.387779e-17
-1.387779e-17
-1.387779e-17
-1.387779e-17
-1.387779e-17
-1.387779e-17
-1.387779e-17
-1.387779e-17
-1.387779e-17
-1.387779e-17
-1.387779e-17
-1.387779e-17
-1.387779e-17
-1.387779e-17
-1.387779e-17
-1.387779e-17
-1.387779e-17
-1.387779e-17
-1.387779e-17
-1.387779e-17
-1.387779e-17
-1.387779e-17
-1.387779e-17
-1.387779e-17
-1.387779e-17
-1.387779e-17
-1.387779e-17
4.034090e-01
4.034090e-01
4.034090e-01
4.034090e-01
4.034090e-01
4.034090e-01
4.034090e-01
4.034090e-01
4.034090e-01
4.034090e-01
4.034090e-01
4.034090e-01
4.034090e-01
4.034090e-01
4.034090e-01
4.034090e-01
4.034090e-01
4.034090e-01
4.034090e-01
4.034090e-01
4.034090e-01
4.034090e-01
4.034090e-01
4.034090e-01
4.034090e-01
4.034090e-01
4.034090e-01
4.034090e-01
4.034090e-01
4.034090e-01
4.034090e-01
4.034090e-01
4.034090e-01
2.186528e-01
2.358238e-01
2.257156e-01
2.607997e-01
2.330149e-01
2.476565e-01
2.004038e-01
1.892548e-01
2.414615e-01
2.095228e-01
2.243509e-01
2.169990e-01
2.384842e-01
2.112094e-01
3.859267e-01
2.584712e-01
2.322203e-01
2.057002e-01
2.650755e-01
2.505305e-01
2.358613e-01
2.037704e-01
1.428586e-01
2.366772e-01
2.495711e-01
2.220990e-01
1.982543e-01
1.756329e-01
1.263591e-01
1.228941e-01
1.390086e-01
1.168807e-01
9.840423e-02
8.763766e-02
3.762479e-01
3.706303e-01
3.826853e-01
3.920182e-01
3.630428e-01
3.577577e-01
3.453152e-01
3.424090e-01
3.321010e-01
3.231613e-01
3.320554e-01
3.155390e-01
3.153349e-01
3.067067e-01
2.989930e-01
2.986330e-01
2.923968e-01
2.882010e-01
2.813116e-01
2.736532e-01
2.835778e-01
2.741268e-01
2.637073e-01
2.656374e-01
2.549161e-01
2.473454e-01
1.637238e-01
1.637517e-01
3.517524e-01
3.650578e-01
3.770531e-01
3.887041e-01
1.758775e-01
1.871169e-01
2.030616e-01
2.214726e-01
1.819091e-01
1.958650e-01
1.499626e-01
1.528773e-01
1.593454e-01
1.689955e-01
3.697467e-01
3.512145e-01
3.439083e-01
3.275046e-01
3.219646e-01
3.284725e-01
2.958416e-01
2.952499e-01
3.042629e-01
3.114458e-01
2.636092e-01
2.369142e-01
2.675632e-01
2.815251e-01
2.812055e-01
2.941380e-01
5.455282e-02
7.928375e-02
7.971243e-02
1.060507e-01
1.042687e-01
1.275839e-01
1.332667e-01
1.315633e-01
1.555447e-01
3.307547e-01
3.452618e-01
3.587922e-01
3.711929e-01
3.820916e-01
1.498241e-01
1.599261e-01
1.594276e-01
2.064077e-01
1.821238e-01
1.886795e-01
1.836232e-01
1.785014e-01
1.713578e-01
2.780020e-01
2.473780e-01
2.189503e-01
1.900076e-01
2.032820e-01
2.571114e-01
2.282023e-01
3.919950e-01
3.901277e-01
3.784256e-01
3.902826e-01
3.878422e-01
3.742449e-01
3.622212e-01
3.772793e-01
3.681980e-01
3.555391e-01
3.425765e-01
3.882464e-01
3.745893e-01
3.615255e-01
3.485772e-01
3.341113e-01
3.193349e-01
3.921184e-01
3.832060e-01
3.702291e-01
3.565097e-01
3.421490e-01
3.269204e-01
3.095618e-01
2.911483e-01
2.702264e-01
3.888492e-01
3.769837e-01
3.640379e-01
3.509500e-01
3.366466e-01
3.208244e-01
3.040140e-01
2.806856e-01
2.637042e-01
2.517273e-01
3.086672e-01
3.240279e-01
3.383543e-01
3.518671e-01
3.650014e-01
3.785722e-01
3.893415e-01
3.290361e-02
1.984650e-02
6.077420e-02
4.307240e-02
2.305235e-02
8.869636e-02
6.883407e-02
4.830488e-02
2.541260e-02
1.346565e-01
1.144522e-01
9.512632e-02
7.488615e-02
5.272965e-02
2.799936e-02
1.866285e-01
1.606089e-01
1.393021e-01
1.214871e-01
1.022837e-01
8.126277e-02
5.817629e-02
3.191803e-02
1.280154e-01
1.018563e-01
6.682113e-02
4.000281e-02
2.094444e-01
2.923861e-02
1.820489e-01
1.610773e-01
1.482294e-01
1.306783e-01
1.105426e-01
8.943023e-02
6.660004e-02
4.026059e-02
3.907941e-01
3.760601e-01
3.588860e-01
3.390531e-01
3.168208e-01
2.928597e-01
2.677204e-01
2.418243e-01
2.153288e-01
1.872105e-01
1.544488e-01
1.253624e-01
9.579680e-02
6.524223e-02
3.383560e-02
3.896968e-01
2.840106e-01
3.018388e-01
3.168476e-01
3.302554e-01
3.443282e-01
3.584221e-01
3.711276e-01
3.819533e-01
3.739844e-01
3.557144e-01
3.350352e-01
3.124745e-01
2.884827e-01
2.633769e-01
2.373526e-01
2.102802e-01
1.817953e-01
1.522376e-01
1.227991e-01
9.297145e-02
6.262702e-02
3.155991e-02
3.889403e-01
3.724860e-01
3.536052e-01
3.324631e-01
3.096864e-01
2.855878e-01
2.604244e-01
2.342692e-01
2.071207e-01
1.790012e-01
1.502005e-01
1.209462e-01
9.126079e-02
6.113795e-02
3.063919e-02
3.884587e-01
3.715754e-01
3.523251e-01
3.309612e-01
3.080254e-01
2.838592e-01
2.586291e-01
2.324421e-01
2.053447e-01
1.774480e-01
1.488948e-01
1.198199e-01
9.028427e-02
6.039388e-02
3.023572e-02
3.881937e-01
3.710717e-01
3.516490e-01
3.301490e-01
3.071499e-01
2.829258e-01
2.576726e-01
2.314775e-01
2.044334e-01
1.766312e-01
1.481946e-01
1.192129e-01
8.979776e-02
6.003760e-02
3.006260e-02
3.880589e-01
3.708325e-01
3.513166e-01
3.297717e-01
3.067282e-01
2.824882e-01
2.572179e-01
2.310300e-01
2.040084e-01
1.762536e-01
1.478604e-01
1.189357e-01
2.178275e-01
1.975415e-01
1.789156e-01
1.615630e-01
1.422234e-01
1.215691e-01
1.002273e-01
7.758329e-02
5.381430e-02
3.127859e-02
1.482410e-02
8.957345e-02
5.988718e-02
2.998719e-02
3.879985e-01
3.707232e-01
3.511806e-01
3.296080e-01
3.065565e-01
2.823031e-01
2.570314e-01
2.308445e-01
2.038363e-01
1.760966e-01
1.477257e-01
1.188200e-01
8.948395e-02
5.982318e-02
2.995199e-02
3.879682e-01
3.706828e-01
3.511260e-01
3.295512e-01
3.064899e-01
2.822363e-01
2.569616e-01
2.307777e-01
2.037730e-01
1.760407e-01
1.476757e-01
1.187781e-01
8.945002e-02
2.530215e-01
2.787565e-01
2.964323e-01
3.065919e-01
3.209806e-01
3.362958e-01
3.510565e-01
3.637695e-01
3.770055e-01
3.891102e-01
5.979595e-02
2.993389e-02
3.879595e-01
3.706708e-01
3.511109e-01
3.295234e-01
3.064641e-01
2.822063e-01
2.569340e-01
2.307503e-01
2.037483e-01
1.760174e-01
1.476553e-01
1.187605e-01
8.943553e-02
5.978873e-02
2.993199e-02
3.879994e-01
3.706692e-01
3.510808e-01
3.294938e-01
3.064253e-01
2.821723e-01
2.568993e-01
2.307194e-01
2.037174e-01
1.759888e-01
1.476268e-01
1.187357e-01
8.941694e-02
5.977877e-02
2.993558e-02
3.879132e-01
3.705835e-01
3.510081e-01
3.294006e-01
3.063333e-01
2.820752e-01
2.568104e-01
2.306307e-01
2.036330e-01
1.759013e-01
1.475444e-01
1.186561e-01
8.935037e-02
5.973158e-02
2.991503e-02
3.878300e-01
3.704904e-01
3.508356e-01
3.291831e-01
3.060814e-01
2.818295e-01
2.565657e-01
2.303950e-01
2.033896e-01
1.756622e-01
1.473009e-01
1.184312e-01
8.914350e-02
5.956631e-02
2.981801e-02
3.878782e-01
3.702832e-01
3.504330e-01
3.286428e-01
3.055108e-01
2.812556e-01
2.560071e-01
2.298218e-01
2.028126e-01
1.750635e-01
1.467199e-01
1.689885e-01
1.514971e-01
1.332020e-01
1.138141e-01
9.387991e-02
7.401167e-02
5.135542e-02
2.711585e-02
1.178655e-01
8.863815e-02
5.914332e-02
2.955798e-02
3.875682e-01
3.696196e-01
3.494462e-01
3.275115e-01
3.043556e-01
2.801350e-01
2.548633e-01
2.286447e-01
2.015754e-01
1.738180e-01
1.454723e-01
1.166886e-01
8.755815e-02
5.825865e-02
2.903270e-02
3.868007e-01
3.681291e-01
3.474880e-01
3.254454e-01
3.024138e-01
2.782164e-01
2.528309e-01
2.264428e-01
1.992935e-01
1.714949e-01
1.432129e-01
1.144767e-01
8.555347e-02
1.863844e-01
5.663449e-02
2.818095e-02
3.854037e-01
3.650922e-01
3.439780e-01
3.223450e-01
2.997476e-01
2.753513e-01
2.494672e-01
2.227294e-01
1.954712e-01
1.677923e-01
1.396394e-01
1.107140e-01
8.199370e-02
5.407681e-02
2.733594e-02
3.840474e-01
3.685221e-01
3.444021e-01
3.169336e-01
3.824785e-01
3.583376e-01
3.385453e-01
3.196013e-01
2.968095e-01
2.711969e-01
2.441342e-01
2.167502e-01
1.897234e-01
1.628876e-01
1.352331e-01
1.038926e-01
7.491088e-02
5.262624e-02
2.778174e-02
2.287603e-02
2.836265e-02
4.778109e-02
2.218662e-02
1.567514e-01
1.406966e-01
1.233592e-01
1.048394e-01
8.562042e-02
6.661481e-02
5.061467e-02
2.506683e-02
3.771526e-02
5.684349e-02
7.416466e-02
2.785447e-02
4.822427e-02
6.669493e-02
8.475038e-02
1.013378e-01
3.713667e-02
5.705080e-02
7.642961e-02
9.507780e-02
1.126585e-01
1.285648e-01
3.333467e-01
3.333467e-01
3.333467e-01
3.333467e-01
3.333467e-01
3.333467e-01
3.333467e-01
3.333467e-01
3.333467e-01
3.333467e-01
3.333467e-01
3.333467e-01
3.333467e-01
3.333467e-01
3.333467e-01
3.333467e-01
3.333467e-01
3.333467e-01
3.333467e-01
3.333467e-01
3.333467e-01
3.333467e-01
3.333467e-01
3.333467e-01
3.333467e-01
3.333467e-01
3.333467e-01
3.333467e-01
3.333467e-01
3.333467e-01
3.333467e-01
3.333467e-01
3.333467e-01
3.572092e-01
3.809509e-01
3.688928e-01
3.568057e-01
3.801879e-01
3.568935e-01
3.802731e-01
3.569185e-01
3.803040e-01
3.577394e-01
3.813915e-01
3.696163e-01
3.684705e-01
3.570488e-01
3.803810e-01
3.568889e-01
3.803080e-01
3.566901e-01
3.798236e-01
3.745451e-01
3.544000e-01
3.804491e-01
3.569085e-01
3.803857e-01
3.586971e-01
3.792076e-01
3.562962e-01
3.831604e-01
3.544821e-01
3.798004e-01
3.565727e-01
3.800279e-01
3.567285e-01
3.800482e-01
3.568669e-01
3.802488e-01
3.569063e-01
3.802844e-01
3.569615e-01
3.803661e-01
3.571170e-01
3.805943e-01
3.600821e-01
3.841719e-01
3.543516e-01
3.800048e-01
3.589796e-01
3.832364e-01
3.574976e-01
3.815932e-01
3.527672e-01
3.793611e-01
3.803297e-01
3.568784e-01
3.568440e-01
3.804055e-01
3.570240e-01
3.803658e-01
3.569262e-01
3.803473e-01
1.734723e-17
1.734723e-17
1.734723e-17
1.734723e-17
1.734723e-17
1.734723e-17
1.734723e-17
1.734723e-17
1.734723e-17
1.734723e-17
1.734723e-17
1.734723e-17
1.734723e-17
1.734723e-17
1.734723e-17
1.734723e-17
1.734723e-17
1.734723e-17
1.734723e-17
1.734723e-17
1.734723e-17
1.734723e-17
1.734723e-17
1.734723e-17
1.734723e-17
1.734723e-17
1.734723e-17
1.734723e-17
1.734723e-17
1.734723e-17
1.734723e-17
1.734723e-17
1.734723e-17
1.649450e-01
2.186364e-01
2.144645e-01
1.715430e-01
1.857269e-01
1.568528e-01
5.784783e-02
2.691600e-01
1.281193e-01
8.294671e-02
8.670837e-02
1.108406e-01
1.017241e-01
1.277816e-01
1.433314e-01
1.234141e-01
1.400485e-01
1.589810e-01
1.639118e-01
1.729140e-01
1.658832e-01
1.887121e-01
3.755364e-02
2.377844e-02
1.955339e-01
1.908419e-01
1.907429e-01
1.970956e-01
2.350905e-01
2.134701e-01
2.288587e-01
2.481702e-01
2.428266e-01
2.527978e-01
2.761065e-01
1.810367e-01
2.042669e-01
2.286217e-01
2.427372e-01
2.446279e-01
2.430059e-01
2.467400e-01
1.501986e-01
1.800796e-01
2.047091e-01
1.794693e-01
2.033348e-01
2.295076e-01
2.474549e-01
6.853747e-02
5.114441e-02
2.984368e-02
2.502742e-01
2.945563e-01
2.741463e-01
2.729757e-01
2.295011e-01
2.460764e-01
2.510843e-01
2.067828e-01
2.129793e-01
2.226843e-01
2.310940e-01
1.813681e-01
1.909187e-01
2.026352e-01
2.130162e-01
4.383781e-02
6.798245e-02
1.099714e-01
1.094796e-01
1.516093e-01
1.540102e-01
1.387186e-01
1.266834e-01
1.976567e-01
1.733993e-01
1.442677e-01
2.066426e-02
2.020589e-02
1.951383e-02
2.034845e-02
2.169680e-02
2.060619e-02
2.163023e-02
2.185992e-02
1.000375e-01
8.210793e-02
6.314042e-02
4.163218e-02
2.401415e-02
1.825091e-02
1.546897e-02
1.925335e-02
1.747420e-02
2.356836e-02
6.359423e-02
3.477394e-02
3.732337e-02
5.288335e-02
7.174418e-02
8.981979e-02
2.351453e-02
4.306498e-02
6.448175e-02
8.340421e-02
1.024577e-01
1.180795e-01
2.871033e-02
5.255622e-02
7.378884e-02
9.365317e-02
1.133989e-01
1.359450e-01
1.437312e-01
3.169404e-01
2.983614e-01
3.160413e-01
2.611055e-01
2.792098e-01
2.973795e-01
3.153139e-01
2.394395e-01
2.586718e-01
2.772185e-01
2.952174e-01
1.315081e-01
1.134770e-01
9.518016e-02
7.667357e-02
4.868795e-02
2.861824e-02
3.135720e-01
3.524830e-02
6.329440e-02
9.393378e-02
1.250172e-01
1.582603e-01
1.887161e-01
2.174536e-01
2.425757e-01
2.668282e-01
2.941626e-01
3.114176e-01
1.906993e-01
2.152243e-01
2.368340e-01
2.557698e-01
2.733937e-01
2.908227e-01
3.092227e-01
3.166307e-01
2.544860e-01
2.836092e-01
3.052044e-01
1.366262e-01
1.685316e-01
1.922227e-01
2.175882e-01
3.890605e-02
6.579493e-02
9.988543e-02
3.452793e-02
7.194284e-02
1.053657e-01
1.332886e-01
1.656742e-01
1.917185e-01
2.129738e-01
2.371446e-01
2.624273e-01
2.868578e-01
3.103974e-01
2.665862e-01
2.899972e-01
3.124474e-01
1.341734e-01
1.673566e-01
1.922077e-01
2.197926e-01
3.053832e-02
5.769632e-02
9.569446e-02
3.732539e-02
7.746834e-02
1.959161e-01
2.200269e-01
2.386039e-01
2.569697e-01
2.757972e-01
2.949263e-01
3.118988e-01
3.236539e-01
1.069736e-01
1.267004e-01
1.545577e-01
1.927180e-01
2.240704e-01
2.453329e-01
2.685363e-01
2.915031e-01
3.132586e-01
2.688427e-01
2.919870e-01
3.135236e-01
1.227894e-01
1.538672e-01
1.856089e-01
2.157987e-01
3.745633e-02
6.756566e-02
9.769812e-02
3.177290e-02
6.465151e-02
9.781235e-02
1.282015e-01
1.612163e-01
1.885018e-01
2.179712e-01
2.437447e-01
2.686992e-01
2.920942e-01
3.136194e-01
2.687293e-01
1.626735e-01
2.922635e-01
3.137240e-01
3.525687e-02
7.013821e-02
1.014832e-01
1.308585e-01
1.585437e-01
1.832154e-01
2.126878e-01
2.439725e-01
2.693991e-01
2.926900e-01
3.139554e-01
1.383861e-01
1.658285e-01
1.895019e-01
2.176846e-01