VARIABLES = "X" "Y" "Z" "FREF"
ZONE T="instant 091"
Nodes=3151, Elements=6298
ZONETYPE=FETriangle
DATAPACKING=BLOCK
VARLOCATION = ([1-3]=NODAL, [4]=CELLCENTERED)
5.000000e-01
2.759652e-01
2.946413e-01
3.091144e-01
3.207237e-01
3.347088e-01
3.490412e-01
3.635783e-01
3.792277e-01
3.957714e-01
4.109984e-01
4.237659e-01
4.352077e-01
4.456367e-01
4.551327e-01
4.634719e-01
4.704570e-01
4.756896e-01
4.804877e-01
4.855949e-01
4.900501e-01
4.935381e-01
4.960783e-01
4.979436e-01
4.991850e-01
4.998509e-01
2.616000e-01
2.616000e-01
2.616000e-01
2.616000e-01
2.616000e-01
2.616000e-01
2.616000e-01
2.616000e-01
2.616000e-01
2.616000e-01
2.616000e-01
2.616000e-01
4.111957e-01
4.102623e-01
4.071166e-01
4.018697e-01
3.936167e-01
3.883071e-01
3.816540e-01
3.726973e-01
3.650531e-01
3.575870e-01
3.493534e-01
3.395244e-01
3.316700e-01
3.244311e-01
3.178842e-01
3.094020e-01
3.006721e-01
2.946979e-01
2.860791e-01
2.743165e-01
4.116000e-01
4.916360e-01
4.830623e-01
4.747116e-01
4.669005e-01
4.581286e-01
4.498170e-01
4.414091e-01
4.333237e-01
4.255087e-01
4.182688e-01
4.285938e-01
3.023472e-01
2.905581e-01
4.380834e-01
4.226418e-01
3.100541e-01
3.190964e-01
3.017851e-01
3.188892e-01
2.797678e-01
3.206751e-01
3.066770e-01
3.227210e-01
3.332033e-01
4.921120e-01
3.440361e-01
3.557446e-01
3.389521e-01
3.472052e-01
3.949944e-01
4.010536e-01
4.308976e-01
4.161883e-01
4.117712e-01
4.369043e-01
4.400538e-01
4.248124e-01
4.882682e-01
4.836170e-01
4.336647e-01
4.426293e-01
4.367368e-01
4.493422e-01
4.413929e-01
4.501141e-01
4.174941e-01
4.298174e-01
4.231433e-01
4.109263e-01
3.031021e-01
2.888406e-01
2.737056e-01
2.779072e-01
2.771604e-01
2.929609e-01
3.062508e-01
2.786561e-01
2.922480e-01
3.076038e-01
3.210404e-01
2.702647e-01
2.797512e-01
2.938915e-01
3.073712e-01
4.901416e-01
3.231000e-01
3.357629e-01
3.382742e-01
3.506028e-01
3.416517e-01
3.517450e-01
3.646227e-01
2.762311e-01
2.919671e-01
3.097327e-01
3.265280e-01
3.251406e-01
3.253857e-01
3.320253e-01
3.400901e-01
3.541045e-01
3.654759e-01
3.726366e-01
3.806750e-01
2.769417e-01
2.929986e-01
3.078076e-01
3.284942e-01
3.397256e-01
3.504390e-01
3.623795e-01
3.562092e-01
3.654340e-01
3.676944e-01
3.775789e-01
3.871844e-01
3.988793e-01
3.379036e-01
3.480023e-01
3.607672e-01
3.775444e-01
4.871114e-01
4.809480e-01
4.787229e-01
4.738940e-01
3.894923e-01
3.999668e-01
4.119546e-01
3.441072e-01
3.698552e-01
3.808779e-01
3.905917e-01
4.014874e-01
4.117037e-01
4.236013e-01
3.563325e-01
3.662916e-01
3.786776e-01
3.824205e-01
3.937003e-01
4.041585e-01
4.837692e-01
4.769696e-01
4.727416e-01
4.680864e-01
4.654277e-01
4.117915e-01
4.217832e-01
4.338952e-01
3.920859e-01
4.059178e-01
4.193844e-01
4.305976e-01
4.434512e-01
3.623052e-01
3.736774e-01
3.838200e-01
3.960679e-01
4.168174e-01
4.297183e-01
4.402273e-01
4.523505e-01
4.061204e-01
4.178112e-01
4.274081e-01
4.392116e-01
4.488508e-01
4.601836e-01
4.553098e-01
4.601644e-01
3.778161e-01
3.884647e-01
3.980265e-01
4.089352e-01
4.181663e-01
4.281166e-01
4.360820e-01
4.476062e-01
4.560664e-01
4.671212e-01
4.437669e-01
4.476615e-01
4.792747e-01
4.724763e-01
4.684378e-01
4.622103e-01
4.599873e-01
4.558110e-01
4.516164e-01
4.487326e-01
4.538226e-01
4.576151e-01
4.628159e-01
4.667284e-01
4.737116e-01
2.616000e-01
4.998044e-01
4.984886e-01
4.963003e-01
4.936934e-01
4.892781e-01
4.841085e-01
4.772255e-01
4.680842e-01
4.570285e-01
4.457461e-01
4.352728e-01
4.239415e-01
4.122360e-01
3.996039e-01
3.883754e-01
3.790560e-01
3.696817e-01
3.587481e-01
3.469782e-01
3.349963e-01
3.228852e-01
3.104716e-01
2.978891e-01
2.849775e-01
2.725318e-01
5.000000e-01
4.182930e-01
4.259695e-01
4.330065e-01
4.416758e-01
4.492096e-01
4.575792e-01
4.663225e-01
4.757401e-01
4.841840e-01
4.924844e-01
4.116000e-01
2.711985e-01
2.806219e-01
2.930827e-01
3.120274e-01
3.240736e-01
3.352086e-01
3.461507e-01
3.557128e-01
3.635312e-01
3.686141e-01
3.756922e-01
3.822720e-01
3.872879e-01
3.911465e-01
3.944875e-01
3.994770e-01
4.032058e-01
4.052411e-01
4.073918e-01
4.095398e-01
4.111357e-01
2.616000e-01
2.616000e-01
2.616000e-01
2.616000e-01
2.616000e-01
2.616000e-01
2.616000e-01
2.616000e-01
2.616000e-01
2.616000e-01
2.616000e-01
4.322695e-01
4.477488e-01
2.914698e-01
3.196286e-01
3.089534e-01
4.133754e-01
4.148900e-01
4.253264e-01
4.219875e-01
4.355435e-01
4.342542e-01
4.395992e-01
4.250486e-01
4.554315e-01
2.741446e-01
4.504171e-01
4.384578e-01
4.505832e-01
4.301647e-01
4.443209e-01
4.376255e-01
4.533338e-01
4.465032e-01
2.757796e-01
3.293758e-01
2.928070e-01
2.876910e-01
2.780258e-01
3.195868e-01
3.413702e-01
3.037732e-01
3.370818e-01
3.190415e-01
3.415122e-01
3.284795e-01
3.493321e-01
3.568176e-01
2.838537e-01
4.177237e-01
2.751591e-01
2.853325e-01
3.030362e-01
4.112895e-01
4.195100e-01
4.254353e-01
4.909625e-01
4.814448e-01
4.870153e-01
4.877226e-01
4.681615e-01
4.729765e-01
4.757299e-01
4.789726e-01
3.000026e-01
2.904940e-01
2.757114e-01
4.828304e-01
4.666331e-01
4.688311e-01
4.720927e-01
4.790244e-01
4.607579e-01
4.623512e-01
4.702884e-01
4.742497e-01
4.076932e-01
4.107115e-01
4.162031e-01
4.484745e-01
4.556774e-01
4.649802e-01
4.439404e-01
4.534854e-01
4.561387e-01
4.601888e-01
4.609261e-01
4.619204e-01
4.644576e-01
3.997609e-01
4.194136e-01
4.279526e-01
4.380273e-01
4.437408e-01
4.485047e-01
4.538404e-01
4.014917e-01
4.029747e-01
4.075695e-01
4.292468e-01
4.359802e-01
3.127728e-01
3.032107e-01
4.389027e-01
4.434588e-01
3.888611e-01
4.097299e-01
4.138138e-01
4.221772e-01
4.270126e-01
4.288715e-01
4.328413e-01
3.907956e-01
3.911555e-01
3.944252e-01
4.117550e-01
4.168285e-01
4.184348e-01
4.219280e-01
3.936532e-01
3.242514e-01
3.133584e-01
3.021550e-01
2.883781e-01
2.742063e-01
3.957372e-01
4.031239e-01
4.066020e-01
4.071929e-01
4.103720e-01
3.736522e-01
3.757629e-01
3.743998e-01
3.782856e-01
3.918141e-01
3.945427e-01
3.954810e-01
3.985181e-01
3.767110e-01
3.789166e-01
3.783324e-01
3.826491e-01
3.844366e-01
3.863095e-01
2.770591e-01
2.909460e-01
3.100829e-01
3.223803e-01
3.341231e-01
3.467826e-01
3.590740e-01
3.536752e-01
3.535905e-01
3.610487e-01
3.629290e-01
3.593323e-01
3.638167e-01
3.660705e-01
3.730917e-01
3.716487e-01
3.721348e-01
3.361004e-01
3.252897e-01
3.149466e-01
3.030097e-01
2.902039e-01
2.751922e-01
3.385060e-01
3.484520e-01
3.592823e-01
3.183427e-01
3.276439e-01
3.372733e-01
3.479221e-01
5.000000e-01
5.000000e-01
5.000000e-01
5.000000e-01
5.000000e-01
5.000000e-01
5.000000e-01
5.000000e-01
5.000000e-01
5.000000e-01
5.000000e-01
5.000000e-01
5.000000e-01
5.000000e-01
5.000000e-01
5.000000e-01
5.000000e-01
5.000000e-01
5.000000e-01
5.000000e-01
5.000000e-01
5.000000e-01
5.000000e-01
5.000000e-01
5.000000e-01
5.000000e-01
5.000000e-01
5.000000e-01
5.000000e-01
5.000000e-01
5.000000e-01
5.000000e-01
5.000000e-01
2.616000e-01
2.616000e-01
2.616000e-01
2.616000e-01
2.616000e-01
2.616000e-01
2.616000e-01
2.616000e-01
2.616000e-01
2.616000e-01
2.616000e-01
2.616000e-01
2.616000e-01
2.616000e-01
2.616000e-01
2.616000e-01
2.616000e-01
2.616000e-01
2.616000e-01
2.616000e-01
2.616000e-01
2.616000e-01
2.616000e-01
2.616000e-01
2.616000e-01
2.616000e-01
2.616000e-01
2.616000e-01
2.616000e-01
2.616000e-01
2.616000e-01
2.616000e-01
2.616000e-01
4.076484e-01
4.151133e-01
4.118606e-01
4.191436e-01
4.267796e-01
4.427447e-01
4.306631e-01
4.358506e-01
3.817064e-01
3.887221e-01
3.939776e-01
3.953648e-01
4.005131e-01
4.045163e-01
4.090395e-01
4.259217e-01
4.139307e-01
4.078532e-01
4.193443e-01
4.306654e-01
4.017659e-01
4.017935e-01
2.821774e-01
2.739832e-01
4.119835e-01
4.234033e-01
4.347617e-01
4.221577e-01
4.296350e-01
4.372803e-01
4.323199e-01
4.392652e-01
4.418898e-01
4.566406e-01
4.332845e-01
4.416605e-01
4.295575e-01
4.456058e-01
4.353054e-01
4.242997e-01
4.492994e-01
4.397061e-01
4.303128e-01
4.206811e-01
4.488763e-01
4.561826e-01
4.535261e-01
4.464612e-01
4.403003e-01
2.983018e-01
2.882031e-01
2.767458e-01
4.175150e-01
4.243465e-01
4.302232e-01
4.122287e-01
4.190857e-01
4.071142e-01
2.738414e-01
2.829191e-01
2.850520e-01
2.940004e-01
2.965752e-01
3.035505e-01
3.058687e-01
3.084628e-01
3.089852e-01
3.145325e-01
3.177535e-01
3.205730e-01
3.213347e-01
3.262597e-01
3.297783e-01
3.327965e-01
3.286462e-01
3.338811e-01
3.383491e-01
3.419096e-01
3.450449e-01
3.370666e-01
3.417273e-01
3.464435e-01
3.505962e-01
3.540584e-01
3.572217e-01
3.449613e-01
3.127967e-01
3.031680e-01
2.927734e-01
2.819211e-01
2.746018e-01
3.498931e-01
3.545374e-01
3.589523e-01
3.628750e-01
3.661041e-01
3.692155e-01
3.573859e-01
3.626332e-01
3.671384e-01
3.713550e-01
3.751339e-01
3.778768e-01
3.808997e-01
3.640404e-01
3.700785e-01
3.753933e-01
3.794688e-01
3.836052e-01
3.874548e-01
3.890558e-01
3.921753e-01
3.705919e-01
3.767473e-01
3.827886e-01
3.882827e-01
3.912562e-01
3.957001e-01
4.003414e-01
3.988443e-01
4.033718e-01
4.116079e-01
4.394123e-01
3.975675e-01
4.079929e-01
4.191459e-01
3.269436e-01
3.179709e-01
3.082686e-01
2.983844e-01
2.894148e-01
2.805137e-01
4.302037e-01
3.902898e-01
4.018616e-01
4.138144e-01
4.252513e-01
4.354464e-01
4.448447e-01
4.142594e-01
4.206275e-01
4.249933e-01
4.289915e-01
4.325011e-01
4.370984e-01
4.417019e-01
4.459986e-01
4.460666e-01
4.482714e-01
4.507566e-01
4.526999e-01
4.544402e-01
4.566218e-01
4.372772e-01
4.428979e-01
4.477648e-01
4.522529e-01
4.565090e-01
4.600594e-01
4.622160e-01
4.459182e-01
4.482937e-01
4.527813e-01
4.581570e-01
4.619570e-01
4.648425e-01
4.673798e-01
4.550424e-01
4.636417e-01
4.625223e-01
4.685224e-01
4.698092e-01
4.721300e-01
4.748271e-01
4.766722e-01
4.627019e-01
4.720211e-01
4.773702e-01
4.807544e-01
4.700122e-01
4.778524e-01
4.812673e-01
4.841875e-01
4.818862e-01
4.877116e-01
3.412632e-01
3.325866e-01
3.233018e-01
3.137850e-01
3.044178e-01
2.948739e-01
2.837167e-01
2.754378e-01
4.858855e-01
4.910933e-01
4.875944e-01
4.918270e-01
4.961285e-01
4.987313e-01
4.971810e-01
4.951829e-01
4.949152e-01
4.928345e-01
4.918375e-01
4.922280e-01
4.880023e-01
4.884657e-01
4.891483e-01
4.900295e-01
4.834490e-01
4.838898e-01
4.846444e-01
4.856336e-01
4.867872e-01
4.784851e-01
4.793022e-01
4.803970e-01
4.817169e-01
4.831634e-01
4.774845e-01
4.792214e-01
4.722009e-01
4.731072e-01
4.742906e-01
4.757818e-01
4.650672e-01
4.660584e-01
4.672859e-01
4.689310e-01
4.709431e-01
4.730472e-01
4.749647e-01
4.572656e-01
4.582099e-01
4.593690e-01
4.610871e-01
4.634683e-01
4.660904e-01
4.684359e-01
4.700864e-01
4.406549e-01
4.411867e-01
4.496928e-01
4.505860e-01
4.521121e-01
4.550135e-01
4.580989e-01
4.617102e-01
4.624316e-01
4.650985e-01
4.420963e-01
4.501164e-01
4.368309e-01
3.013953e-01
3.210152e-01
3.099320e-01
3.250908e-01
3.198656e-01
3.393182e-01
3.356391e-01
3.301574e-01
3.575095e-01
3.507809e-01
3.557848e-01
3.471132e-01
3.380125e-01
3.287113e-01
3.193484e-01
3.098212e-01
2.998676e-01
2.904051e-01
2.809331e-01
3.456274e-01
3.402763e-01
3.734649e-01
3.665777e-01
3.606535e-01
3.553085e-01
3.501148e-01
3.817768e-01
3.755119e-01
3.699329e-01
3.647270e-01
3.596762e-01
3.962837e-01
3.898779e-01
3.841164e-01
3.788774e-01
3.738910e-01
3.689467e-01
4.097590e-01
4.036205e-01
3.977305e-01
3.924825e-01
3.876068e-01
3.828238e-01
3.778906e-01
4.218939e-01
4.167664e-01
4.106414e-01
4.054381e-01
4.006868e-01
3.962030e-01
3.914660e-01
3.864100e-01
4.319016e-01
4.299764e-01
4.226649e-01
4.177234e-01
4.129614e-01
4.089396e-01
4.046384e-01
3.995689e-01
3.944736e-01
4.613225e-01
4.546133e-01
4.461215e-01
4.365111e-01
4.258664e-01
4.143502e-01
4.021503e-01
4.528130e-01
4.434894e-01
4.330465e-01
4.212709e-01
4.094248e-01
2.742680e-01
2.729625e-01
2.751137e-01
2.874587e-01
2.835865e-01
2.906226e-01
3.006409e-01
2.738164e-01
2.849407e-01
2.950858e-01
3.038924e-01
3.134739e-01
2.744839e-01
2.862211e-01
2.970967e-01
3.071766e-01
3.165934e-01
3.260454e-01
3.704778e-01
3.615133e-01
3.524292e-01
3.432904e-01
3.340649e-01
3.246834e-01
3.150691e-01
3.053869e-01
2.954021e-01
2.842271e-01
2.748189e-01
2.715432e-01
2.775351e-01
2.879680e-01
2.988569e-01
3.093986e-01
3.194404e-01
3.290718e-01
3.384467e-01
2.708251e-01
2.739038e-01
2.833369e-01
2.913064e-01
3.011001e-01
3.114534e-01
3.217209e-01
3.317028e-01
3.414034e-01
3.507930e-01
2.770737e-01
2.865386e-01
2.955647e-01
3.041839e-01
3.138239e-01
3.238929e-01
3.339653e-01
3.438550e-01
3.535567e-01
3.632202e-01
3.738305e-01
2.721832e-01
2.815019e-01
2.899369e-01
2.990911e-01
3.078680e-01
3.165276e-01
3.262237e-01
3.361320e-01
3.460559e-01
3.558092e-01
3.653559e-01
3.748481e-01
3.832926e-01
2.729957e-01
2.834778e-01
2.924649e-01
3.023039e-01
3.116172e-01
3.201109e-01
3.283338e-01
3.384216e-01
3.481158e-01
3.579611e-01
3.675386e-01
3.768632e-01
3.864578e-01
3.935042e-01
2.679549e-01
2.745195e-01
2.843436e-01
2.953214e-01
3.031543e-01
3.150364e-01
3.242346e-01
3.323407e-01
3.392287e-01
3.508662e-01
3.597452e-01
3.697192e-01
3.790222e-01
3.878607e-01
3.988495e-01
4.036313e-01
3.852344e-01
3.756823e-01
3.664727e-01
3.575012e-01
3.484911e-01
3.393163e-01
3.299158e-01
3.202923e-01
3.103369e-01
2.998412e-01
2.891542e-01
2.769232e-01
4.994042e-01
4.997931e-01
4.979820e-01
4.990407e-01
4.997390e-01
4.958662e-01
4.975698e-01
4.988510e-01
4.996916e-01
4.904853e-01
4.931373e-01
4.953891e-01
4.972561e-01
4.987007e-01
4.996513e-01
4.799807e-01
4.859902e-01
4.895791e-01
4.924601e-01
4.949112e-01
4.969571e-01
4.985516e-01
4.996094e-01
4.819123e-01
4.854809e-01
4.887928e-01
4.917858e-01
4.944114e-01
4.966271e-01
4.983707e-01
4.995490e-01
4.730224e-01
4.767176e-01
4.805372e-01
4.843392e-01
4.878544e-01
4.910322e-01
4.938310e-01
4.962023e-01
4.980844e-01
4.993980e-01
4.997474e-01
4.650406e-01
4.702192e-01
4.747675e-01
4.790727e-01
4.831064e-01
4.868133e-01
4.901586e-01
4.931002e-01
4.955791e-01
4.975095e-01
4.987864e-01
4.996675e-01
4.499970e-01
4.569873e-01
4.629475e-01
4.681930e-01
4.730346e-01
4.775663e-01
4.817755e-01
4.856347e-01
4.891136e-01
4.921717e-01
4.947620e-01
4.968519e-01
4.984893e-01
4.995952e-01
4.311515e-01
4.408585e-01
4.485518e-01
4.551889e-01
4.609555e-01
4.662771e-01
3.995723e-01
3.894062e-01
3.799492e-01
3.712546e-01
3.625596e-01
3.536639e-01
3.445055e-01
3.350594e-01
3.252765e-01
3.150848e-01
3.045151e-01
2.933904e-01
2.821948e-01
4.712788e-01
4.759585e-01
4.802935e-01
4.842680e-01
4.878579e-01
4.910392e-01
4.938208e-01
4.962241e-01
4.982057e-01
4.995261e-01
2.736499e-01
2.858899e-01
2.982085e-01
3.106212e-01
3.231036e-01
3.356078e-01
3.480677e-01
3.604093e-01
3.725578e-01
3.844593e-01
3.961183e-01
4.075231e-01
4.185926e-01
4.293764e-01
4.396529e-01
4.492287e-01
4.580101e-01
4.663837e-01
4.745113e-01
4.802038e-01
4.856137e-01
4.912595e-01
4.951631e-01
4.981594e-01
4.224616e-01
4.328526e-01
4.400746e-01
4.472065e-01
4.531733e-01
4.588523e-01
4.642882e-01
4.694158e-01
4.741826e-01
4.785976e-01
4.826656e-01
4.863252e-01
4.896157e-01
4.926601e-01
4.953405e-01
4.980552e-01
4.992980e-01
2.743344e-01
2.870942e-01
2.998974e-01
3.127388e-01
3.255919e-01
3.384120e-01
3.511419e-01
3.637185e-01
3.760840e-01
3.881917e-01
4.000005e-01
4.114557e-01
4.224944e-01
4.330533e-01
4.430399e-01
4.523944e-01
4.610738e-01
4.690694e-01
4.761702e-01
4.824352e-01
4.879271e-01
4.926647e-01
4.963591e-01
4.989208e-01
2.749765e-01
2.882986e-01
3.015982e-01
3.148860e-01
3.281350e-01
3.413002e-01
3.543229e-01
3.671426e-01
3.797001e-01
3.919397e-01
4.038051e-01
4.152365e-01
4.261731e-01
4.365557e-01
4.463290e-01
4.554447e-01
4.638531e-01
4.715006e-01
4.783390e-01
4.843701e-01
4.895558e-01
4.938411e-01
4.971107e-01
4.992314e-01
2.756207e-01
2.895053e-01
3.033453e-01
3.171249e-01
3.308067e-01
3.443331e-01
3.576466e-01
3.706860e-01
3.833925e-01
4.129214e-01
4.024612e-01
3.925189e-01
3.844410e-01
3.762079e-01
3.676742e-01
3.588189e-01
3.496265e-01
3.400845e-01
3.301789e-01
3.199072e-01
3.092428e-01
2.981791e-01
2.863453e-01
2.771990e-01
3.957085e-01
4.075775e-01
4.189436e-01
4.297520e-01
4.399525e-01
4.494995e-01
4.583495e-01
4.664597e-01
4.737926e-01
4.803199e-01
4.860136e-01
4.908302e-01
4.947151e-01
4.975963e-01
4.993873e-01
2.761810e-01
2.907480e-01
3.052312e-01
3.195713e-01
3.337068e-01
3.475891e-01
3.611654e-01
3.743841e-01
3.871914e-01
3.995362e-01
4.113685e-01
4.226367e-01
4.332894e-01
4.432810e-01
4.525745e-01
4.611330e-01
4.689225e-01
4.759170e-01
4.820934e-01
4.874208e-01
4.918622e-01
4.953802e-01
4.979337e-01
4.994827e-01
2.769458e-01
2.923282e-01
3.075190e-01
3.224151e-01
3.369745e-01
3.511628e-01
3.649435e-01
3.782807e-01
3.911313e-01
4.034591e-01
4.152221e-01
4.263659e-01
4.368331e-01
4.465788e-01
4.555857e-01
4.638208e-01
4.712596e-01
4.778881e-01
4.836958e-01
4.886506e-01
4.927285e-01
4.959137e-01
4.981916e-01
4.995520e-01
2.783253e-01
2.946248e-01
3.104718e-01
3.258370e-01
3.407383e-01
3.551464e-01
3.690300e-01
3.823972e-01
3.952187e-01
4.074994e-01
4.191811e-01
4.301873e-01
4.404429e-01
4.498853e-01
4.585662e-01
4.664345e-01
4.734957e-01
4.797381e-01
4.851738e-01
4.897514e-01
4.934808e-01
4.963695e-01
4.984106e-01
4.996119e-01
2.801636e-01
2.977435e-01
3.141970e-01
3.299068e-01
3.451169e-01
3.596686e-01
3.734251e-01
3.866619e-01
3.993749e-01
4.116957e-01
4.232986e-01
4.341704e-01
4.442351e-01
4.532520e-01
4.615334e-01
4.689441e-01
4.756832e-01
4.815284e-01
4.865726e-01
4.907241e-01
4.941430e-01
4.967938e-01
4.251238e-01
4.148386e-01
4.035508e-01
3.970264e-01
3.894017e-01
3.812960e-01
3.728064e-01
3.639260e-01
3.546707e-01
3.450709e-01
3.351454e-01
3.248889e-01
3.143536e-01
3.036085e-01
2.934311e-01
2.822823e-01
4.986330e-01
4.996790e-01
2.838434e-01
3.031339e-01
3.184706e-01
3.345098e-01
3.504328e-01
3.651778e-01
3.780463e-01
3.893724e-01
4.036694e-01
4.162730e-01
4.275945e-01
4.383031e-01
4.486899e-01
4.570423e-01
4.640218e-01
4.711688e-01
4.781469e-01
4.835858e-01
4.876512e-01
4.914634e-01
4.947095e-01
4.972894e-01
4.989752e-01
4.997303e-01
4.997394e-01
4.996413e-01
4.988704e-01
4.997577e-01
4.993856e-01
4.985048e-01
4.973236e-01
4.996446e-01
4.988761e-01
4.979501e-01
4.966223e-01
4.950647e-01
4.994461e-01
4.984969e-01
4.972314e-01
4.957627e-01
4.939936e-01
4.920473e-01
4.996556e-01
4.987235e-01
4.979382e-01
4.965288e-01
4.947809e-01
4.928064e-01
4.906021e-01
4.882343e-01
4.836757e-01
4.995397e-01
4.985311e-01
4.971295e-01
4.956679e-01
4.937539e-01
4.915185e-01
4.890671e-01
4.864451e-01
4.784756e-01
4.997591e-01
4.993196e-01
4.981994e-01
4.966183e-01
4.947130e-01
4.926223e-01
4.901760e-01
4.874412e-01
4.845357e-01
4.815354e-01
4.726235e-01
4.996187e-01
4.988212e-01
4.977095e-01
4.960193e-01
4.938972e-01
4.914609e-01
4.887767e-01
4.857898e-01
4.825346e-01
4.792010e-01
4.758798e-01
4.993975e-01
4.984164e-01
4.970486e-01
4.952833e-01
4.930242e-01
4.903618e-01
4.873761e-01
4.841193e-01
4.805944e-01
4.767578e-01
4.730447e-01
4.694666e-01
4.657731e-01
4.575603e-01
4.996919e-01
4.987920e-01
4.979007e-01
4.964045e-01
4.944442e-01
4.920519e-01
4.892220e-01
4.860136e-01
4.824622e-01
4.786437e-01
4.746186e-01
4.699929e-01
4.660579e-01
4.623483e-01
4.270015e-01
4.363475e-01
4.995876e-01
4.987301e-01
4.973585e-01
4.957360e-01
4.936120e-01
4.910240e-01
4.880142e-01
4.846181e-01
4.808676e-01
4.767132e-01
4.723376e-01
4.680108e-01
4.618373e-01
4.583178e-01
4.548931e-01
4.467195e-01
2.616000e-01
2.616000e-01
2.616000e-01
2.616000e-01
2.616000e-01
2.616000e-01
2.616000e-01
2.616000e-01
2.616000e-01
2.616000e-01
2.616000e-01
2.616000e-01
2.616000e-01
2.616000e-01
2.616000e-01
2.616000e-01
2.616000e-01
2.616000e-01
2.616000e-01
2.616000e-01
2.616000e-01
2.616000e-01
2.616000e-01
2.616000e-01
2.616000e-01
2.616000e-01
2.616000e-01
2.616000e-01
2.616000e-01
2.616000e-01
2.616000e-01
2.616000e-01
2.616000e-01
2.616000e-01
2.616000e-01
2.616000e-01
2.616000e-01
2.616000e-01
2.616000e-01
2.616000e-01
2.616000e-01
2.616000e-01
2.616000e-01
2.616000e-01
2.616000e-01
2.616000e-01
2.616000e-01
2.616000e-01
2.616000e-01
2.616000e-01
2.616000e-01
2.616000e-01
2.616000e-01
2.616000e-01
2.616000e-01
2.616000e-01
2.616000e-01
2.616000e-01
2.616000e-01
2.616000e-01
2.616000e-01
2.616000e-01
2.616000e-01
2.616000e-01
2.616000e-01
2.616000e-01
2.616000e-01
2.616000e-01
2.616000e-01
2.616000e-01
2.616000e-01
2.616000e-01
2.616000e-01
2.616000e-01
2.616000e-01
2.616000e-01
2.616000e-01
2.616000e-01
2.616000e-01
2.616000e-01
2.616000e-01
2.616000e-01
2.616000e-01
2.616000e-01
2.616000e-01
2.616000e-01
2.616000e-01
2.616000e-01
2.616000e-01
2.616000e-01
2.616000e-01
2.616000e-01
2.616000e-01
2.616000e-01
2.616000e-01
2.616000e-01
2.616000e-01
2.616000e-01
2.616000e-01
2.616000e-01
2.616000e-01
2.616000e-01
2.616000e-01
2.616000e-01
2.616000e-01
2.616000e-01
2.616000e-01
2.616000e-01
2.616000e-01
2.616000e-01
2.616000e-01
2.616000e-01
2.616000e-01
2.616000e-01
2.616000e-01
2.616000e-01
2.616000e-01
2.616000e-01
2.616000e-01
2.616000e-01
2.616000e-01
2.616000e-01
2.616000e-01
2.616000e-01
2.616000e-01
2.616000e-01
2.616000e-01
2.616000e-01
2.616000e-01
2.616000e-01
2.616000e-01
2.616000e-01
2.616000e-01
2.616000e-01
2.616000e-01
2.616000e-01
2.616000e-01
2.616000e-01
2.616000e-01
2.616000e-01
2.616000e-01
2.616000e-01
2.616000e-01
2.616000e-01
2.616000e-01
2.616000e-01
2.616000e-01
2.616000e-01
2.616000e-01
2.616000e-01
2.616000e-01
2.616000e-01
2.616000e-01
2.616000e-01
2.616000e-01
2.616000e-01
2.616000e-01
2.616000e-01
2.616000e-01
2.616000e-01
2.616000e-01
2.616000e-01
2.616000e-01
2.616000e-01
2.616000e-01
2.616000e-01
2.616000e-01
2.616000e-01
2.616000e-01
2.616000e-01
2.616000e-01
2.616000e-01
2.616000e-01
2.616000e-01
2.616000e-01
2.616000e-01
2.616000e-01
2.616000e-01
2.616000e-01
2.616000e-01
2.616000e-01
2.616000e-01
2.616000e-01
2.616000e-01
2.616000e-01
2.616000e-01
2.616000e-01
2.616000e-01
2.616000e-01
2.616000e-01
2.616000e-01
2.616000e-01
2.616000e-01
2.616000e-01
2.616000e-01
2.616000e-01
2.616000e-01
2.616000e-01
2.616000e-01
2.616000e-01
2.616000e-01
2.616000e-01
2.616000e-01
2.616000e-01
2.616000e-01
2.616000e-01
2.616000e-01
2.616000e-01
2.616000e-01
2.616000e-01
2.616000e-01
2.616000e-01
2.616000e-01
2.616000e-01
2.616000e-01
2.616000e-01
2.616000e-01
2.616000e-01
2.616000e-01
2.616000e-01
2.616000e-01
2.616000e-01
2.616000e-01
2.616000e-01
2.616000e-01
2.616000e-01
2.616000e-01
2.616000e-01
2.616000e-01
2.616000e-01
2.616000e-01
2.616000e-01
2.616000e-01
2.616000e-01
2.616000e-01
2.616000e-01
2.616000e-01
2.616000e-01
2.616000e-01
2.616000e-01
2.616000e-01
2.616000e-01
2.616000e-01
2.616000e-01
2.616000e-01
2.616000e-01
2.616000e-01
2.616000e-01
2.616000e-01
2.616000e-01
2.616000e-01
2.616000e-01
2.616000e-01
2.616000e-01
2.616000e-01
2.616000e-01
2.616000e-01
2.616000e-01
2.616000e-01
2.616000e-01
2.616000e-01
2.616000e-01
2.616000e-01
2.616000e-01
2.616000e-01
2.616000e-01
2.616000e-01
2.616000e-01
2.616000e-01
2.616000e-01
2.616000e-01
2.616000e-01
2.616000e-01
2.616000e-01
2.616000e-01
2.616000e-01
2.616000e-01
2.616000e-01
2.616000e-01
2.616000e-01
2.616000e-01
2.616000e-01
2.616000e-01
2.616000e-01
2.616000e-01
2.616000e-01
2.616000e-01
2.616000e-01
2.616000e-01
2.616000e-01
2.616000e-01
2.616000e-01
2.616000e-01
2.616000e-01
2.616000e-01
2.616000e-01
2.616000e-01
2.616000e-01
2.616000e-01
2.616000e-01
2.616000e-01
2.616000e-01
2.616000e-01
2.616000e-01
2.616000e-01
2.616000e-01
2.616000e-01
2.616000e-01
2.616000e-01
2.616000e-01
2.616000e-01
2.616000e-01
2.616000e-01
2.616000e-01
2.616000e-01
2.616000e-01
2.616000e-01
2.616000e-01
2.616000e-01
2.616000e-01
2.616000e-01
2.616000e-01
2.616000e-01
2.616000e-01
2.616000e-01
2.616000e-01
2.616000e-01
2.616000e-01
2.616000e-01
2.616000e-01
2.616000e-01
2.616000e-01
2.616000e-01
2.616000e-01
2.616000e-01
2.616000e-01
2.616000e-01
2.616000e-01
2.616000e-01
2.616000e-01
2.616000e-01
2.616000e-01
2.616000e-01
2.616000e-01
2.616000e-01
2.616000e-01
2.616000e-01
2.616000e-01
2.616000e-01
2.616000e-01
2.616000e-01
2.616000e-01
2.616000e-01
2.616000e-01
2.616000e-01
2.616000e-01
2.616000e-01
2.616000e-01
2.616000e-01
2.616000e-01
2.616000e-01
2.616000e-01
2.616000e-01
2.616000e-01
2.616000e-01
2.616000e-01
2.616000e-01
2.616000e-01
2.616000e-01
2.616000e-01
4.116000e-01
4.116000e-01
4.116000e-01
4.116000e-01
4.116000e-01
4.116000e-01
4.116000e-01
4.116000e-01
4.116000e-01
4.116000e-01
4.116000e-01
4.116000e-01
4.116000e-01
4.116000e-01
4.116000e-01
4.116000e-01
4.116000e-01
4.116000e-01
4.116000e-01
4.116000e-01
4.116000e-01
4.116000e-01
4.116000e-01
4.116000e-01
4.116000e-01
4.116000e-01
4.116000e-01
4.116000e-01
4.116000e-01
4.116000e-01
4.116000e-01
4.116000e-01
4.116000e-01
3.741220e-01
3.682802e-01
3.832702e-01
3.727190e-01
3.767398e-01
3.652139e-01
3.645102e-01
3.596974e-01
3.558471e-01
3.693486e-01
3.615476e-01
3.555785e-01
3.651207e-01
3.535144e-01
3.613329e-01
2.856865e-01
4.102770e-01
4.081941e-01
4.037078e-01
4.055720e-01
4.041077e-01
4.001848e-01
4.041523e-01
4.015149e-01
3.988138e-01
3.989323e-01
3.956208e-01
3.920966e-01
3.954719e-01
3.919636e-01
3.883857e-01
3.842214e-01
4.085609e-01
3.915249e-01
3.876289e-01
3.835862e-01
3.811185e-01
3.752598e-01
3.715551e-01
3.756639e-01
3.656513e-01
3.878946e-01
3.797509e-01
4.107871e-01
3.700354e-01
3.578387e-01
3.644362e-01
3.588623e-01
3.535039e-01
3.492747e-01
3.469346e-01
3.508579e-01
3.454868e-01
3.409835e-01
3.375209e-01
3.426752e-01
3.358581e-01
3.312414e-01
3.272153e-01
3.237062e-01
3.200645e-01
3.160970e-01
3.083038e-01
3.041666e-01
2.899811e-01
3.343216e-01
3.180023e-01
3.043640e-01
2.936991e-01
2.808494e-01
4.037881e-01
4.003660e-01
4.110969e-01
4.092913e-01
4.103541e-01
4.064084e-01
4.078871e-01
4.045664e-01
4.007135e-01
4.051034e-01
4.076991e-01
4.101982e-01
3.112260e-01
2.995834e-01
2.824376e-01
3.103678e-01
2.941159e-01
2.757082e-01
4.035759e-01
4.001838e-01
4.110021e-01
4.091445e-01
4.101947e-01
4.062999e-01
4.076888e-01
4.043518e-01
4.005019e-01
3.099975e-01
2.988067e-01
2.836221e-01
3.114264e-01
2.946163e-01
2.756671e-01
4.109464e-01
4.089918e-01
4.100158e-01
4.060855e-01
4.073873e-01
4.040812e-01
4.004518e-01
3.119807e-01
2.999266e-01
2.832770e-01
4.107859e-01
4.082641e-01
4.057397e-01
4.038068e-01
4.015167e-01
4.005075e-01
3.943551e-01
3.116187e-01
2.963440e-01
2.765771e-01
3.381767e-01
3.236880e-01
3.083956e-01
2.899597e-01
2.754011e-01
4.039149e-01
4.006305e-01
4.110255e-01
4.091859e-01
4.101860e-01
4.063033e-01
4.076858e-01
4.042473e-01
4.003937e-01
3.133254e-01
3.013087e-01
2.841944e-01
3.110308e-01
2.951934e-01
3.899810e-01
3.982500e-01
4.027174e-01
4.060235e-01
2.759429e-01
4.109395e-01
4.091047e-01
4.064573e-01
3.130418e-01
3.007901e-01
2.830324e-01
4.018570e-01
3.980674e-01
4.107236e-01
4.084919e-01
4.097095e-01
4.053230e-01
4.066249e-01
4.011480e-01
4.025045e-01
3.957656e-01
3.980025e-01
3.330098e-01
3.195280e-01
3.065011e-01
2.936524e-01
2.791781e-01
3.055010e-01
2.905282e-01
2.741839e-01
4.106762e-01
4.082302e-01
4.093105e-01
4.047768e-01
4.063052e-01
4.027110e-01
3.987462e-01
3.783215e-01
3.077163e-01
2.967280e-01
2.809481e-01
4.110896e-01
4.085837e-01
4.051969e-01
4.027061e-01
4.002739e-01
3.990627e-01
3.922300e-01
3.084649e-01
2.933198e-01
2.751795e-01
3.345068e-01
3.204425e-01
3.056277e-01
2.879498e-01
2.742610e-01
4.022855e-01
3.986077e-01
4.107935e-01
4.086037e-01
4.098169e-01
4.053975e-01
4.068517e-01
4.028876e-01
3.985942e-01
3.101459e-01
2.984653e-01
2.821189e-01
3.068790e-01
2.920389e-01
2.744700e-01
4.023020e-01
3.986930e-01
4.107762e-01
3.696906e-01
4.084787e-01
4.097406e-01
4.051402e-01
4.067891e-01
4.030562e-01
3.988994e-01
3.074134e-01
2.957810e-01
2.803986e-01
3.052451e-01
2.905547e-01
2.737282e-01
4.106853e-01
4.082186e-01
4.092931e-01
4.048190e-01
4.058703e-01
4.014266e-01
3.969990e-01
3.060597e-01
2.949234e-01
2.791530e-01
4.103846e-01
4.084387e-01
4.059020e-01
4.001731e-01
4.011731e-01
3.961175e-01
3.932209e-01
3.051806e-01
2.901845e-01
2.733646e-01
3.370016e-01
3.236778e-01
3.033336e-01
2.901927e-01
2.779929e-01
4.104739e-01
4.073866e-01
4.078825e-01
3.881049e-01
3.954631e-01
4.006231e-01
4.041319e-01
4.063265e-01
4.092366e-01
4.031908e-01
4.041692e-01
3.995931e-01
3.949480e-01
3.049973e-01
2.941847e-01
2.794000e-01
4.103147e-01
4.061332e-01
3.998600e-01
3.955563e-01
3.900086e-01
3.055373e-01
2.901251e-01
2.734217e-01
2.782489e-01
4.041935e-01
4.019790e-01
3.980689e-01
3.977607e-01
3.909991e-01
3.894936e-01
3.915006e-01
3.843432e-01
3.763284e-01
3.790794e-01
3.824060e-01
3.844148e-01
3.681794e-01
3.722185e-01
3.759803e-01
3.742002e-01
3.469762e-01
3.380790e-01
3.313716e-01
3.245881e-01
3.165731e-01
3.069281e-01
2.961465e-01
2.878469e-01
2.780655e-01
2.942895e-01
2.997180e-01
3.094611e-01
3.100897e-01
3.261885e-01
3.222700e-01
3.193168e-01
3.360173e-01
3.316798e-01
3.280288e-01
3.355810e-01
3.491995e-01
3.439591e-01
3.395024e-01
3.609116e-01
3.558308e-01
3.505268e-01
3.463617e-01
3.426853e-01
3.672398e-01
3.501509e-01
3.577481e-01
3.609086e-01
4.082511e-01
2.765033e-01
4.103068e-01
4.101757e-01
4.088598e-01
4.064659e-01
4.109968e-01
4.022365e-01
4.003629e-01
3.977164e-01
3.711311e-01
3.775299e-01
3.861302e-01
3.933890e-01
3.988549e-01
4.028275e-01
4.057911e-01
4.086852e-01
4.110898e-01
4.098915e-01
4.077896e-01
4.045507e-01
3.883890e-01
4.108622e-01
4.093244e-01
4.070847e-01
4.037622e-01
3.999230e-01
3.963239e-01
3.927037e-01
4.112503e-01
4.104391e-01
4.082869e-01
4.066356e-01
4.025600e-01
3.983468e-01
3.945709e-01
3.915574e-01
3.855339e-01
3.800180e-01
2.805945e-01
2.721224e-01
3.117653e-01
3.021860e-01
2.907039e-01
2.793557e-01
3.142705e-01
2.981135e-01
3.501723e-01
3.439076e-01
3.341059e-01
3.199089e-01
3.076856e-01
2.960754e-01
2.847117e-01
2.747203e-01
3.345497e-01
3.230816e-01
4.021121e-01
3.966659e-01
3.905311e-01
3.825970e-01
3.729659e-01
3.614151e-01
3.487483e-01
4.110139e-01
4.096710e-01
4.065692e-01
4.018501e-01
3.958009e-01
3.876323e-01
3.788712e-01
3.686983e-01
3.574552e-01
3.479918e-01
3.368061e-01
3.254100e-01
3.131301e-01
2.961239e-01
2.811513e-01
3.623336e-01
3.544725e-01
3.455776e-01
3.350844e-01
3.235796e-01
3.121103e-01
3.005449e-01
2.889780e-01
2.781571e-01
2.736509e-01
3.924759e-01
3.861631e-01
3.774130e-01
3.666047e-01
2.979270e-01
2.926495e-01
2.787070e-01
3.515943e-01
3.378277e-01
3.229228e-01
3.083118e-01
2.930412e-01
2.799402e-01
4.020337e-01
3.966199e-01
3.902499e-01
3.817808e-01
3.720395e-01
3.610588e-01
3.489637e-01
3.351063e-01
3.209931e-01
3.075720e-01
4.109029e-01
4.095412e-01
4.065629e-01
4.024601e-01
3.962584e-01
3.864415e-01
3.771089e-01
3.665422e-01
3.549544e-01
3.440073e-01
4.109206e-01
4.087660e-01
4.056950e-01
4.023917e-01
3.975540e-01