VARIABLES = "X" "Y" "Z" "FREF"
ZONE T="instant 084"
Nodes=3151, Elements=6298
ZONETYPE=FETriangle
DATAPACKING=BLOCK
VARLOCATION = ([1-3]=NODAL, [4]=CELLCENTERED)
5.000000e-01
2.588571e-01
2.788114e-01
2.943835e-01
3.072551e-01
3.224253e-01
3.379520e-01
3.536694e-01
3.703426e-01
3.876950e-01
4.038340e-01
4.176142e-01
4.300113e-01
4.413263e-01
4.515995e-01
4.605970e-01
4.681455e-01
4.738297e-01
4.790179e-01
4.844789e-01
4.892453e-01
4.930078e-01
4.957691e-01
4.977967e-01
4.991307e-01
4.998389e-01
2.434000e-01
2.434000e-01
2.434000e-01
2.434000e-01
2.434000e-01
2.434000e-01
2.434000e-01
2.434000e-01
2.434000e-01
2.434000e-01
2.434000e-01
2.434000e-01
3.929119e-01
3.918189e-01
3.885878e-01
3.832105e-01
3.757191e-01
3.706913e-01
3.643333e-01
3.558181e-01
3.481721e-01
3.407289e-01
3.325057e-01
3.226762e-01
3.147481e-01
3.073498e-01
3.004314e-01
2.914897e-01
2.823643e-01
2.759861e-01
2.671243e-01
2.557690e-01
3.934000e-01
4.901463e-01
4.797244e-01
4.699327e-01
4.602998e-01
4.498997e-01
4.395384e-01
4.294514e-01
4.196212e-01
4.101107e-01
4.013392e-01
4.158199e-01
2.858869e-01
2.741837e-01
4.261848e-01
4.094817e-01
2.928461e-01
3.025802e-01
2.843367e-01
3.029433e-01
2.626646e-01
3.048572e-01
2.908165e-01
3.077007e-01
3.185488e-01
4.908215e-01
3.305692e-01
3.436182e-01
3.248516e-01
3.336155e-01
3.789503e-01
3.867497e-01
4.173135e-01
4.013717e-01
3.987460e-01
4.242088e-01
4.295541e-01
4.134610e-01
4.865003e-01
4.807045e-01
4.226429e-01
4.329785e-01
4.269692e-01
4.411357e-01
4.341018e-01
4.428593e-01
4.005326e-01
4.156047e-01
4.077281e-01
3.939220e-01
2.852735e-01
2.707955e-01
2.564690e-01
2.606644e-01
2.601283e-01
2.766676e-01
2.915489e-01
2.612972e-01
2.764680e-01
2.926408e-01
3.075787e-01
2.527157e-01
2.631076e-01
2.779991e-01
2.930015e-01
4.887523e-01
3.093439e-01
3.234223e-01
3.255299e-01
3.392722e-01
3.286966e-01
3.401747e-01
3.543348e-01
2.590400e-01
2.763152e-01
2.947591e-01
3.127078e-01
3.088075e-01
3.091110e-01
3.167885e-01
3.254086e-01
3.411187e-01
3.536208e-01
3.617149e-01
3.710146e-01
2.598083e-01
2.765467e-01
2.927853e-01
3.139340e-01
3.266147e-01
3.382579e-01
3.515153e-01
3.426126e-01
3.526187e-01
3.557555e-01
3.665336e-01
3.774065e-01
3.901918e-01
3.223872e-01
3.335442e-01
3.467791e-01
3.663691e-01
4.852846e-01
4.782278e-01
4.749512e-01
4.690565e-01
3.792093e-01
3.911498e-01
4.042685e-01
3.283569e-01
3.570913e-01
3.690322e-01
3.801980e-01
3.920498e-01
4.037842e-01
4.168582e-01
3.412672e-01
3.523280e-01
3.657284e-01
3.704718e-01
3.829293e-01
3.947826e-01
4.815076e-01
4.737008e-01
4.683770e-01
4.626048e-01
4.586137e-01
4.033209e-01
4.147203e-01
4.280147e-01
3.805032e-01
3.956227e-01
4.112917e-01
4.241540e-01
4.382442e-01
3.466433e-01
3.589462e-01
3.701983e-01
3.836669e-01
4.079547e-01
4.221732e-01
4.343643e-01
4.478070e-01
3.950319e-01
4.081490e-01
4.192416e-01
4.323340e-01
4.436776e-01
4.563181e-01
4.490510e-01
4.560050e-01
3.622323e-01
3.739686e-01
3.848026e-01
3.972496e-01
4.079920e-01
4.194301e-01
4.289079e-01
4.415708e-01
4.517728e-01
4.639485e-01
4.326115e-01
4.375521e-01
4.765954e-01
4.687588e-01
4.634059e-01
4.562237e-01
4.528307e-01
4.473441e-01
4.419668e-01
4.398065e-01
4.461950e-01
4.509661e-01
4.570127e-01
4.627001e-01
4.706967e-01
2.434000e-01
4.997822e-01
4.983836e-01
4.960651e-01
4.931638e-01
4.883518e-01
4.827171e-01
4.752805e-01
4.656202e-01
4.538511e-01
4.417306e-01
4.305092e-01
4.183447e-01
4.057100e-01
3.921093e-01
3.800558e-01
3.699769e-01
3.598047e-01
3.480569e-01
3.353845e-01
3.224409e-01
3.093370e-01
2.958947e-01
2.822937e-01
2.684266e-01
2.550802e-01
5.000000e-01
4.013220e-01
4.104663e-01
4.192975e-01
4.297452e-01
4.392132e-01
4.491367e-01
4.597342e-01
4.710219e-01
4.813500e-01
4.912240e-01
3.934000e-01
2.532912e-01
2.630091e-01
2.755669e-01
2.927216e-01
3.044806e-01
3.153875e-01
3.260517e-01
3.357221e-01
3.436769e-01
3.491085e-01
3.564437e-01
3.631945e-01
3.683625e-01
3.723745e-01
3.759853e-01
3.811817e-01
3.850404e-01
3.871752e-01
3.893032e-01
3.914001e-01
3.929460e-01
2.434000e-01
2.434000e-01
2.434000e-01
2.434000e-01
2.434000e-01
2.434000e-01
2.434000e-01
2.434000e-01
2.434000e-01
2.434000e-01
2.434000e-01
4.192945e-01
4.377136e-01
2.752207e-01
3.039975e-01
2.937166e-01
3.977523e-01
4.004447e-01
4.114365e-01
4.090035e-01
4.229715e-01
4.223316e-01
4.279687e-01
4.131819e-01
4.489277e-01
2.568117e-01
4.416626e-01
4.284091e-01
4.425305e-01
4.192976e-01
4.357667e-01
4.280508e-01
4.463677e-01
4.385372e-01
2.587731e-01
3.110731e-01
2.770118e-01
2.713021e-01
2.607652e-01
3.025842e-01
3.251676e-01
2.886042e-01
3.222021e-01
3.050535e-01
3.278241e-01
3.149979e-01
3.364744e-01
3.451384e-01
2.669419e-01
4.013295e-01
2.579456e-01
2.684948e-01
2.862738e-01
3.945295e-01
4.041838e-01
4.109950e-01
4.891419e-01
4.779726e-01
4.844231e-01
4.860257e-01
4.620494e-01
4.676486e-01
4.715207e-01
4.754942e-01
2.846041e-01
2.740663e-01
2.585948e-01
4.806525e-01
4.603607e-01
4.636307e-01
4.677795e-01
4.765368e-01
4.533408e-01
4.554588e-01
4.663053e-01
4.711336e-01
3.920496e-01
3.960268e-01
4.028337e-01
4.408984e-01
4.496786e-01
4.607321e-01
4.333630e-01
4.445346e-01
4.480165e-01
4.531316e-01
4.550031e-01
4.565232e-01
4.595940e-01
3.825442e-01
4.070289e-01
4.172178e-01
4.291530e-01
4.359509e-01
4.426153e-01
4.492902e-01
3.852691e-01
3.876618e-01
3.937800e-01
4.200406e-01
4.281881e-01
2.982724e-01
2.880555e-01
4.327155e-01
4.382726e-01
3.709622e-01
3.970564e-01
4.029638e-01
4.130542e-01
4.188574e-01
4.221402e-01
4.269472e-01
3.740964e-01
3.753205e-01
3.802519e-01
4.020446e-01
4.082495e-01
4.110129e-01
4.152725e-01
3.806891e-01
3.107023e-01
2.990458e-01
2.865335e-01
2.721762e-01
2.568429e-01
3.842453e-01
3.931651e-01
3.972892e-01
3.990473e-01
4.029198e-01
3.551612e-01
3.585359e-01
3.583823e-01
3.637955e-01
3.809674e-01
3.845260e-01
3.866510e-01
3.902693e-01
3.630959e-01
3.662818e-01
3.668916e-01
3.720304e-01
3.749171e-01
3.772431e-01
2.596412e-01
2.749575e-01
2.949797e-01
3.086001e-01
3.213570e-01
3.349719e-01
3.482231e-01
3.347214e-01
3.361097e-01
3.448186e-01
3.476003e-01
3.452086e-01
3.506869e-01
3.543100e-01
3.620832e-01
3.614091e-01
3.623562e-01
3.234746e-01
3.118179e-01
3.003385e-01
2.877691e-01
2.737061e-01
2.581706e-01
3.259892e-01
3.368017e-01
3.485217e-01
3.040865e-01
3.140441e-01
3.246830e-01
3.362237e-01
5.000000e-01
5.000000e-01
5.000000e-01
5.000000e-01
5.000000e-01
5.000000e-01
5.000000e-01
5.000000e-01
5.000000e-01
5.000000e-01
5.000000e-01
5.000000e-01
5.000000e-01
5.000000e-01
5.000000e-01
5.000000e-01
5.000000e-01
5.000000e-01
5.000000e-01
5.000000e-01
5.000000e-01
5.000000e-01
5.000000e-01
5.000000e-01
5.000000e-01
5.000000e-01
5.000000e-01
5.000000e-01
5.000000e-01
5.000000e-01
5.000000e-01
5.000000e-01
5.000000e-01
2.434000e-01
2.434000e-01
2.434000e-01
2.434000e-01
2.434000e-01
2.434000e-01
2.434000e-01
2.434000e-01
2.434000e-01
2.434000e-01
2.434000e-01
2.434000e-01
2.434000e-01
2.434000e-01
2.434000e-01
2.434000e-01
2.434000e-01
2.434000e-01
2.434000e-01
2.434000e-01
2.434000e-01
2.434000e-01
2.434000e-01
2.434000e-01
2.434000e-01
2.434000e-01
2.434000e-01
2.434000e-01
2.434000e-01
2.434000e-01
2.434000e-01
2.434000e-01
2.434000e-01
4.000571e-01
4.080718e-01
4.046789e-01
4.124702e-01
4.206565e-01
4.384483e-01
4.253714e-01
4.310380e-01
3.723217e-01
3.797628e-01
3.855350e-01
3.868179e-01
3.924494e-01
3.968400e-01
4.014958e-01
4.196490e-01
4.067541e-01
4.001538e-01
4.125325e-01
4.247479e-01
3.936659e-01
3.936755e-01
2.655951e-01
2.567609e-01
4.046331e-01
4.169442e-01
4.292071e-01
4.158167e-01
4.238238e-01
4.320219e-01
4.268168e-01
4.342570e-01
4.371589e-01
4.528198e-01
4.281633e-01
4.371872e-01
4.241652e-01
4.415025e-01
4.304084e-01
4.185693e-01
4.454854e-01
4.351152e-01
4.250105e-01
4.146380e-01
4.450685e-01
4.529497e-01
4.501048e-01
4.424759e-01
4.358562e-01
2.829113e-01
2.720580e-01
2.597386e-01
4.111889e-01
4.186288e-01
4.249907e-01
4.055569e-01
4.129700e-01
4.000546e-01
2.564389e-01
2.661952e-01
2.684619e-01
2.780753e-01
2.808239e-01
2.883456e-01
2.908027e-01
2.935771e-01
2.942038e-01
3.000957e-01
3.035403e-01
3.065649e-01
3.074188e-01
3.126558e-01
3.164262e-01
3.196713e-01
3.152669e-01
3.208504e-01
3.256081e-01
3.294292e-01
3.328048e-01
3.242874e-01
3.292735e-01
3.342985e-01
3.387289e-01
3.424559e-01
3.458656e-01
3.327644e-01
2.986003e-01
2.882089e-01
2.770534e-01
2.654283e-01
2.574037e-01
3.380157e-01
3.429849e-01
3.476930e-01
3.518861e-01
3.553803e-01
3.587353e-01
3.460631e-01
3.516517e-01
3.564844e-01
3.609819e-01
3.650250e-01
3.680239e-01
3.712760e-01
3.532848e-01
3.596658e-01
3.653200e-01
3.697144e-01
3.741168e-01
3.782401e-01
3.800407e-01
3.833747e-01
3.603702e-01
3.668989e-01
3.732987e-01
3.791430e-01
3.823783e-01
3.870944e-01
3.921227e-01
3.905434e-01
3.953955e-01
4.047593e-01
4.346205e-01
3.894835e-01
4.006972e-01
4.127580e-01
3.138637e-01
3.041666e-01
2.937377e-01
2.831177e-01
2.733971e-01
2.638693e-01
4.247420e-01
3.816198e-01
3.940243e-01
4.068819e-01
4.192753e-01
4.302838e-01
4.404085e-01
4.071064e-01
4.140070e-01
4.186511e-01
4.229840e-01
4.267758e-01
4.316959e-01
4.366722e-01
4.413968e-01
4.415628e-01
4.439937e-01
4.467306e-01
4.486822e-01
4.506123e-01
4.530164e-01
4.319062e-01
4.379687e-01
4.431972e-01
4.480924e-01
4.527702e-01
4.566327e-01
4.590181e-01
4.412690e-01
4.438334e-01
4.486307e-01
4.544215e-01
4.586166e-01
4.617902e-01
4.645647e-01
4.511265e-01
4.603937e-01
4.591457e-01
4.656944e-01
4.671545e-01
4.696888e-01
4.725683e-01
4.745959e-01
4.594160e-01
4.694839e-01
4.753200e-01
4.789984e-01
4.673202e-01
4.758474e-01
4.795699e-01
4.827354e-01
4.802728e-01
4.865770e-01
3.293336e-01
3.199087e-01
3.099093e-01
2.996714e-01
2.895628e-01
2.792947e-01
2.673271e-01
2.582683e-01
4.845972e-01
4.902427e-01
4.864449e-01
4.910302e-01
4.957329e-01
4.986415e-01
4.969764e-01
4.948298e-01
4.945361e-01
4.923027e-01
4.912144e-01
4.916503e-01
4.870746e-01
4.875969e-01
4.883401e-01
4.892876e-01
4.821600e-01
4.826628e-01
4.834929e-01
4.845640e-01
4.858041e-01
4.768279e-01
4.777369e-01
4.789328e-01
4.803580e-01
4.819104e-01
4.758119e-01
4.776743e-01
4.700306e-01
4.710544e-01
4.723609e-01
4.739807e-01
4.623153e-01
4.634420e-01
4.648144e-01
4.666151e-01
4.687855e-01
4.710436e-01
4.731027e-01
4.538915e-01
4.549596e-01
4.562747e-01
4.581747e-01
4.607484e-01
4.635754e-01
4.660889e-01
4.678922e-01
4.359797e-01
4.366546e-01
4.457513e-01
4.467901e-01
4.485039e-01
4.516448e-01
4.549805e-01
4.588817e-01
4.596831e-01
4.625384e-01
4.377276e-01
4.463338e-01
4.320303e-01
2.864480e-01
3.075415e-01
2.956910e-01
3.119513e-01
3.063080e-01
3.271795e-01
3.232581e-01
3.173872e-01
3.466503e-01
3.395396e-01
3.449619e-01
3.355320e-01
3.257251e-01
3.157187e-01
3.056343e-01
2.953805e-01
2.846803e-01
2.744406e-01
2.643014e-01
3.339955e-01
3.282479e-01
3.636976e-01
3.564766e-01
3.501561e-01
3.444057e-01
3.388047e-01
3.727692e-01
3.661079e-01
3.601230e-01
3.545094e-01
3.490519e-01
3.883215e-01
3.815238e-01
3.753667e-01
3.697238e-01
3.643338e-01
3.589894e-01
4.027945e-01
3.962600e-01
3.899909e-01
3.843506e-01
3.790819e-01
3.739065e-01
3.685873e-01
4.158298e-01
4.103558e-01
4.038607e-01
3.982776e-01
3.931541e-01
3.882919e-01
3.831817e-01
3.777514e-01
4.265590e-01
4.245565e-01
4.167812e-01
4.114720e-01
4.063663e-01
4.019936e-01
3.973430e-01
3.919161e-01
3.864330e-01
4.584295e-01
4.512048e-01
4.420744e-01
4.317301e-01
4.202513e-01
4.078283e-01
3.946816e-01
4.492372e-01
4.392309e-01
4.279967e-01
4.152451e-01
4.024732e-01
2.570067e-01
2.556486e-01
2.580618e-01
2.712173e-01
2.671077e-01
2.747386e-01
2.854126e-01
2.565379e-01
2.685173e-01
2.794359e-01
2.889563e-01
2.992243e-01
2.573273e-01
2.699243e-01
2.816020e-01
2.924353e-01
3.025901e-01
3.127559e-01
3.607139e-01
3.509989e-01
3.412187e-01
3.313909e-01
3.214647e-01
3.113699e-01
3.010257e-01
2.905848e-01
2.798398e-01
2.677893e-01
2.575938e-01
2.540745e-01
2.606897e-01
2.718751e-01
2.835345e-01
2.948353e-01
3.056224e-01
3.159963e-01
3.261090e-01
2.532942e-01
2.565799e-01
2.667359e-01
2.754588e-01
2.859776e-01
2.970673e-01
3.080751e-01
3.187979e-01
3.292484e-01
3.394029e-01
2.600611e-01
2.701658e-01
2.798869e-01
2.892511e-01
2.996060e-01
3.104056e-01
3.212117e-01
3.318448e-01
3.423076e-01
3.528133e-01
3.642519e-01
2.547193e-01
2.647242e-01
2.737999e-01
2.836248e-01
2.930932e-01
3.024642e-01
3.128641e-01
3.235122e-01
3.341683e-01
3.446663e-01
3.549686e-01
3.652456e-01
3.744036e-01
2.556033e-01
2.668299e-01
2.764865e-01
2.870171e-01
2.970380e-01
3.062017e-01
3.150842e-01
3.258869e-01
3.363390e-01
3.469121e-01
3.572383e-01
3.673069e-01
3.776655e-01
3.853855e-01
2.501920e-01
2.572540e-01
2.677749e-01
2.795640e-01
2.879283e-01
3.006475e-01
3.105438e-01
3.192708e-01
3.266938e-01
3.391568e-01
3.487807e-01
3.594915e-01
3.695457e-01
3.790971e-01
3.909603e-01
3.962810e-01
3.764718e-01
3.661939e-01
3.563067e-01
3.466659e-01
3.369766e-01
3.271076e-01
3.169952e-01
3.066368e-01
2.959285e-01
2.846391e-01
2.731348e-01
2.600328e-01
4.993596e-01
4.997769e-01
4.978328e-01
4.989675e-01
4.997187e-01
4.955335e-01
4.973771e-01
4.987592e-01
4.996670e-01
4.896939e-01
4.925737e-01
4.950106e-01
4.970303e-01
4.985934e-01
4.996226e-01
4.783241e-01
4.848261e-01
4.887123e-01
4.918323e-01
4.944850e-01
4.967000e-01
4.984282e-01
4.995758e-01
4.804207e-01
4.842723e-01
4.878539e-01
4.910916e-01
4.939334e-01
4.963343e-01
4.982269e-01
4.995086e-01
4.708552e-01
4.748305e-01
4.789326e-01
4.830306e-01
4.868258e-01
4.902612e-01
4.932915e-01
4.958641e-01
4.979117e-01
4.993477e-01
4.997262e-01
4.622868e-01
4.678262e-01
4.727038e-01
4.773312e-01
4.816775e-01
4.856790e-01
4.892967e-01
4.924853e-01
4.951801e-01
4.972864e-01
4.986825e-01
4.996378e-01
4.461795e-01
4.536095e-01
4.599818e-01
4.656026e-01
4.707999e-01
4.756742e-01
4.802106e-01
4.843784e-01
4.881442e-01
4.914638e-01
4.942850e-01
4.965662e-01
4.983504e-01
4.995569e-01
4.259454e-01
4.363348e-01
4.445274e-01
4.516116e-01
4.577856e-01
4.634934e-01
3.917853e-01
3.809039e-01
3.707868e-01
3.614497e-01
3.521017e-01
3.425350e-01
3.326864e-01
3.225303e-01
3.120193e-01
3.010759e-01
2.897295e-01
2.778199e-01
2.658793e-01
4.688660e-01
4.739013e-01
4.785757e-01
4.828713e-01
4.867601e-01
4.902165e-01
4.932474e-01
4.958672e-01
4.980333e-01
4.994763e-01
2.563019e-01
2.694078e-01
2.826048e-01
2.959092e-01
3.092919e-01
3.226987e-01
3.360596e-01
3.492961e-01
3.623289e-01
3.751007e-01
3.876212e-01
3.998809e-01
4.117957e-01
4.234325e-01
4.345222e-01
4.448639e-01
4.543499e-01
4.634112e-01
4.722564e-01
4.784329e-01
4.842822e-01
4.904285e-01
4.946920e-01
4.979535e-01
4.165448e-01
4.276926e-01
4.353983e-01
4.430035e-01
4.493855e-01
4.554707e-01
4.613030e-01
4.668114e-01
4.719426e-01
4.767085e-01
4.811060e-01
4.850696e-01
4.886511e-01
4.919669e-01
4.948829e-01
4.978566e-01
4.992173e-01
2.570145e-01
2.706833e-01
2.844111e-01
2.981833e-01
3.119689e-01
3.257187e-01
3.393721e-01
3.528636e-01
3.661335e-01
3.791352e-01
3.918271e-01
4.041518e-01
4.160436e-01
4.274316e-01
4.382105e-01
4.483157e-01
4.577029e-01
4.663663e-01
4.740615e-01
4.808492e-01
4.868134e-01
4.919692e-01
4.959995e-01
4.988093e-01
2.576997e-01
2.719709e-01
2.862356e-01
3.004933e-01
3.147110e-01
3.288372e-01
3.428108e-01
3.565694e-01
3.700529e-01
3.832043e-01
3.959648e-01
4.082704e-01
4.200550e-01
4.312532e-01
4.418037e-01
4.516537e-01
4.607484e-01
4.690265e-01
4.764334e-01
4.829732e-01
4.886058e-01
4.932694e-01
4.968367e-01
4.991575e-01
2.583909e-01
2.732720e-01
2.881217e-01
3.029167e-01
3.176052e-01
3.321260e-01
3.464176e-01
3.604184e-01
3.740681e-01
4.061136e-01
3.949152e-01
3.842938e-01
3.756232e-01
3.667750e-01
3.575993e-01
3.480775e-01
3.381995e-01
3.279555e-01
3.173289e-01
3.063142e-01
2.948799e-01
2.830180e-01
2.702117e-01
2.601851e-01
3.873075e-01
4.000770e-01
4.123161e-01
4.239650e-01
4.349681e-01
4.452750e-01
4.548375e-01
4.636075e-01
4.715428e-01
4.786125e-01
4.847866e-01
4.900165e-01
4.942413e-01
4.973791e-01
4.993320e-01
2.590105e-01
2.746279e-01
2.901791e-01
3.055795e-01
3.207614e-01
3.356681e-01
3.502465e-01
3.644439e-01
3.782062e-01
3.914805e-01
4.042140e-01
4.163510e-01
4.278343e-01
4.386128e-01
4.486456e-01
4.578917e-01
4.663131e-01
4.738803e-01
4.805684e-01
4.863428e-01
4.911614e-01
4.949814e-01
4.977558e-01
4.994386e-01
2.598361e-01
2.763505e-01
2.926706e-01
3.086784e-01
3.243201e-01
3.395594e-01
3.543598e-01
3.686869e-01
3.824982e-01
3.957571e-01
4.084198e-01
4.204261e-01
4.317113e-01
4.422243e-01
4.519459e-01
4.608407e-01
4.688806e-01
4.760495e-01
4.823355e-01
4.877020e-01
4.921210e-01
4.955739e-01
4.980426e-01
4.995157e-01
2.612983e-01
2.788181e-01
2.958707e-01
3.123970e-01
3.284118e-01
3.438925e-01
3.588041e-01
3.731631e-01
3.869443e-01
4.001578e-01
4.127384e-01
4.245989e-01
4.356572e-01
4.458410e-01
4.552066e-01
4.637023e-01
4.713329e-01
4.780823e-01
4.839616e-01
4.889144e-01
4.929509e-01
4.960780e-01
4.982857e-01
4.995823e-01
2.633277e-01
2.822171e-01
2.999366e-01
3.168107e-01
3.331625e-01
3.488021e-01
3.635722e-01
3.777826e-01
3.914544e-01
4.047315e-01
4.172288e-01
4.289390e-01
4.397916e-01
4.495137e-01
4.584395e-01
4.664360e-01
4.737260e-01
4.800458e-01
4.854934e-01
4.899784e-01
4.936774e-01
4.965463e-01
4.192834e-01
4.082721e-01
3.961280e-01
3.891445e-01
3.809622e-01
3.722497e-01
3.631183e-01
3.535745e-01
3.436421e-01
3.333496e-01
3.227079e-01
3.117125e-01
3.003898e-01
2.888429e-01
2.778374e-01
2.659244e-01
4.985316e-01
4.996563e-01
2.674017e-01
2.880796e-01
3.045231e-01
3.217929e-01
3.389160e-01
3.547629e-01
3.685392e-01
3.807283e-01
3.961754e-01
4.097398e-01
4.219089e-01
4.334167e-01
4.446291e-01
4.536131e-01
4.611251e-01
4.688499e-01
4.764220e-01
4.822830e-01
4.866644e-01
4.907855e-01
4.942973e-01
4.970924e-01
4.989034e-01
4.997125e-01
4.997201e-01
4.996121e-01
4.987856e-01
4.997415e-01
4.993365e-01
4.983866e-01
4.971190e-01
4.996164e-01
4.987958e-01
4.977909e-01
4.963596e-01
4.946820e-01
4.993932e-01
4.983770e-01
4.970241e-01
4.954369e-01
4.935294e-01
4.914284e-01
4.996303e-01
4.986242e-01
4.977637e-01
4.962568e-01
4.943847e-01
4.922558e-01
4.898793e-01
4.873230e-01
4.824200e-01
4.995057e-01
4.984230e-01
4.969170e-01
4.953292e-01
4.932741e-01
4.908750e-01
4.882340e-01
4.854063e-01
4.768326e-01
4.997402e-01
4.992630e-01
4.980631e-01
4.963673e-01
4.943216e-01
4.920619e-01
4.894312e-01
4.864926e-01
4.833616e-01
4.801254e-01
4.705439e-01
4.995896e-01
4.987321e-01
4.975311e-01
4.957189e-01
4.934435e-01
4.908274e-01
4.879347e-01
4.847201e-01
4.812220e-01
4.776263e-01
4.740446e-01
4.993457e-01
4.982954e-01
4.968260e-01
4.949250e-01
4.925006e-01
4.896445e-01
4.864392e-01
4.829342e-01
4.791377e-01
4.750185e-01
4.710056e-01
4.671492e-01
4.631965e-01
4.543834e-01
4.996696e-01
4.987002e-01
4.977380e-01
4.961330e-01
4.940273e-01
4.914549e-01
4.884163e-01
4.849730e-01
4.811630e-01
4.770562e-01
4.727118e-01
4.677520e-01
4.634856e-01
4.594965e-01
4.214548e-01
4.314225e-01
4.995569e-01
4.986374e-01
4.971654e-01
4.954171e-01
4.931347e-01
4.903541e-01
4.871193e-01
4.834710e-01
4.794445e-01
4.749951e-01
4.702917e-01
4.656011e-01
4.589588e-01
4.551549e-01
4.514948e-01
4.426968e-01
2.434000e-01
2.434000e-01
2.434000e-01
2.434000e-01
2.434000e-01
2.434000e-01
2.434000e-01
2.434000e-01
2.434000e-01
2.434000e-01
2.434000e-01
2.434000e-01
2.434000e-01
2.434000e-01
2.434000e-01
2.434000e-01
2.434000e-01
2.434000e-01
2.434000e-01
2.434000e-01
2.434000e-01
2.434000e-01
2.434000e-01
2.434000e-01
2.434000e-01
2.434000e-01
2.434000e-01
2.434000e-01
2.434000e-01
2.434000e-01
2.434000e-01
2.434000e-01
2.434000e-01
2.434000e-01
2.434000e-01
2.434000e-01
2.434000e-01
2.434000e-01
2.434000e-01
2.434000e-01
2.434000e-01
2.434000e-01
2.434000e-01
2.434000e-01
2.434000e-01
2.434000e-01
2.434000e-01
2.434000e-01
2.434000e-01
2.434000e-01
2.434000e-01
2.434000e-01
2.434000e-01
2.434000e-01
2.434000e-01
2.434000e-01
2.434000e-01
2.434000e-01
2.434000e-01
2.434000e-01
2.434000e-01
2.434000e-01
2.434000e-01
2.434000e-01
2.434000e-01
2.434000e-01
2.434000e-01
2.434000e-01
2.434000e-01
2.434000e-01
2.434000e-01
2.434000e-01
2.434000e-01
2.434000e-01
2.434000e-01
2.434000e-01
2.434000e-01
2.434000e-01
2.434000e-01
2.434000e-01
2.434000e-01
2.434000e-01
2.434000e-01
2.434000e-01
2.434000e-01
2.434000e-01
2.434000e-01
2.434000e-01
2.434000e-01
2.434000e-01
2.434000e-01
2.434000e-01
2.434000e-01
2.434000e-01
2.434000e-01
2.434000e-01
2.434000e-01
2.434000e-01
2.434000e-01
2.434000e-01
2.434000e-01
2.434000e-01
2.434000e-01
2.434000e-01
2.434000e-01
2.434000e-01
2.434000e-01
2.434000e-01
2.434000e-01
2.434000e-01
2.434000e-01
2.434000e-01
2.434000e-01
2.434000e-01
2.434000e-01
2.434000e-01
2.434000e-01
2.434000e-01
2.434000e-01
2.434000e-01
2.434000e-01
2.434000e-01
2.434000e-01
2.434000e-01
2.434000e-01
2.434000e-01
2.434000e-01
2.434000e-01
2.434000e-01
2.434000e-01
2.434000e-01
2.434000e-01
2.434000e-01
2.434000e-01
2.434000e-01
2.434000e-01
2.434000e-01
2.434000e-01
2.434000e-01
2.434000e-01
2.434000e-01
2.434000e-01
2.434000e-01
2.434000e-01
2.434000e-01
2.434000e-01
2.434000e-01
2.434000e-01
2.434000e-01
2.434000e-01
2.434000e-01
2.434000e-01
2.434000e-01
2.434000e-01
2.434000e-01
2.434000e-01
2.434000e-01
2.434000e-01
2.434000e-01
2.434000e-01
2.434000e-01
2.434000e-01
2.434000e-01
2.434000e-01
2.434000e-01
2.434000e-01
2.434000e-01
2.434000e-01
2.434000e-01
2.434000e-01
2.434000e-01
2.434000e-01
2.434000e-01
2.434000e-01
2.434000e-01
2.434000e-01
2.434000e-01
2.434000e-01
2.434000e-01
2.434000e-01
2.434000e-01
2.434000e-01
2.434000e-01
2.434000e-01
2.434000e-01
2.434000e-01
2.434000e-01
2.434000e-01
2.434000e-01
2.434000e-01
2.434000e-01
2.434000e-01
2.434000e-01
2.434000e-01
2.434000e-01
2.434000e-01
2.434000e-01
2.434000e-01
2.434000e-01
2.434000e-01
2.434000e-01
2.434000e-01
2.434000e-01
2.434000e-01
2.434000e-01
2.434000e-01
2.434000e-01
2.434000e-01
2.434000e-01
2.434000e-01
2.434000e-01
2.434000e-01
2.434000e-01
2.434000e-01
2.434000e-01
2.434000e-01
2.434000e-01
2.434000e-01
2.434000e-01
2.434000e-01
2.434000e-01
2.434000e-01
2.434000e-01
2.434000e-01
2.434000e-01
2.434000e-01
2.434000e-01
2.434000e-01
2.434000e-01
2.434000e-01
2.434000e-01
2.434000e-01
2.434000e-01
2.434000e-01
2.434000e-01
2.434000e-01
2.434000e-01
2.434000e-01
2.434000e-01
2.434000e-01
2.434000e-01
2.434000e-01
2.434000e-01
2.434000e-01
2.434000e-01
2.434000e-01
2.434000e-01
2.434000e-01
2.434000e-01
2.434000e-01
2.434000e-01
2.434000e-01
2.434000e-01
2.434000e-01
2.434000e-01
2.434000e-01
2.434000e-01
2.434000e-01
2.434000e-01
2.434000e-01
2.434000e-01
2.434000e-01
2.434000e-01
2.434000e-01
2.434000e-01
2.434000e-01
2.434000e-01
2.434000e-01
2.434000e-01
2.434000e-01
2.434000e-01
2.434000e-01
2.434000e-01
2.434000e-01
2.434000e-01
2.434000e-01
2.434000e-01
2.434000e-01
2.434000e-01
2.434000e-01
2.434000e-01
2.434000e-01
2.434000e-01
2.434000e-01
2.434000e-01
2.434000e-01
2.434000e-01
2.434000e-01
2.434000e-01
2.434000e-01
2.434000e-01
2.434000e-01
2.434000e-01
2.434000e-01
2.434000e-01
2.434000e-01
2.434000e-01
2.434000e-01
2.434000e-01
2.434000e-01
2.434000e-01
2.434000e-01
2.434000e-01
2.434000e-01
2.434000e-01
2.434000e-01
2.434000e-01
2.434000e-01
2.434000e-01
2.434000e-01
2.434000e-01
2.434000e-01
2.434000e-01
2.434000e-01
2.434000e-01
2.434000e-01
2.434000e-01
2.434000e-01
2.434000e-01
2.434000e-01
2.434000e-01
2.434000e-01
2.434000e-01
2.434000e-01
2.434000e-01
2.434000e-01
2.434000e-01
2.434000e-01
2.434000e-01
2.434000e-01
2.434000e-01
2.434000e-01
2.434000e-01
2.434000e-01
2.434000e-01
2.434000e-01
2.434000e-01
2.434000e-01
2.434000e-01
2.434000e-01
2.434000e-01
2.434000e-01
2.434000e-01
2.434000e-01
2.434000e-01
2.434000e-01
2.434000e-01
2.434000e-01
2.434000e-01
2.434000e-01
2.434000e-01
2.434000e-01
2.434000e-01
2.434000e-01
2.434000e-01
2.434000e-01
2.434000e-01
2.434000e-01
2.434000e-01
2.434000e-01
2.434000e-01
2.434000e-01
2.434000e-01
2.434000e-01
2.434000e-01
2.434000e-01
2.434000e-01
2.434000e-01
2.434000e-01
2.434000e-01
3.934000e-01
3.934000e-01
3.934000e-01
3.934000e-01
3.934000e-01
3.934000e-01
3.934000e-01
3.934000e-01
3.934000e-01
3.934000e-01
3.934000e-01
3.934000e-01
3.934000e-01
3.934000e-01
3.934000e-01
3.934000e-01
3.934000e-01
3.934000e-01
3.934000e-01
3.934000e-01
3.934000e-01
3.934000e-01
3.934000e-01
3.934000e-01
3.934000e-01
3.934000e-01
3.934000e-01
3.934000e-01
3.934000e-01
3.934000e-01
3.934000e-01
3.934000e-01
3.934000e-01
3.552845e-01
3.494294e-01
3.645527e-01
3.539724e-01
3.580116e-01
3.463899e-01
3.455311e-01
3.407176e-01
3.367404e-01
3.514994e-01
3.439452e-01
3.380556e-01
3.476275e-01
3.360954e-01
3.440175e-01
2.673500e-01
3.920644e-01
3.899506e-01
3.854007e-01
3.872995e-01
3.858067e-01
3.818032e-01
3.858544e-01
3.831658e-01
3.804199e-01
3.805472e-01
3.771839e-01
3.736152e-01
3.770300e-01
3.734642e-01
3.698540e-01
3.656394e-01
3.901090e-01
3.729779e-01
3.690243e-01
3.649485e-01
3.624689e-01
3.565648e-01
3.522371e-01
3.565959e-01
3.463181e-01
3.692158e-01
3.608967e-01
3.924732e-01
3.509828e-01
3.386248e-01
3.457154e-01
3.400779e-01
3.345588e-01
3.301673e-01
3.277059e-01
3.321575e-01
3.266004e-01
3.219549e-01
3.183605e-01
3.239248e-01
3.169946e-01
3.123306e-01
3.082222e-01
3.049998e-01
3.013087e-01
2.972975e-01
2.896429e-01
2.855432e-01
2.715786e-01
3.157448e-01
2.994785e-01
2.858473e-01
2.751087e-01
2.621870e-01
3.854920e-01
3.819888e-01
3.928851e-01
3.910555e-01
3.921317e-01
3.881410e-01
3.896435e-01
3.862770e-01
3.823347e-01
3.865544e-01
3.893518e-01
3.919354e-01
2.927399e-01
2.809164e-01
2.637603e-01
2.918977e-01
2.754843e-01
2.571337e-01
3.852980e-01
3.818226e-01
3.928069e-01
3.909324e-01
3.919951e-01
3.880540e-01
3.894708e-01
3.860848e-01
3.821417e-01
2.915962e-01
2.802038e-01
2.648275e-01
2.929950e-01
2.760537e-01
2.571678e-01
3.927576e-01
3.907940e-01
3.918221e-01
3.878563e-01
3.891776e-01
3.858217e-01
3.821051e-01
2.935933e-01
2.813797e-01
2.646622e-01
3.925910e-01
3.900675e-01
3.875001e-01
3.855580e-01
3.831955e-01
3.821837e-01
3.759532e-01
2.931967e-01
2.778027e-01
2.581472e-01
3.196887e-01
3.053213e-01
2.900143e-01
2.715100e-01
2.569390e-01
3.857053e-01
3.823537e-01
3.928342e-01
3.909900e-01
3.920004e-01
3.881002e-01
3.894990e-01
3.860295e-01
3.821063e-01
2.950015e-01
2.828059e-01
2.656187e-01
2.926736e-01
2.767021e-01
3.723214e-01
3.799313e-01
3.844329e-01
3.878034e-01
2.575141e-01
3.927661e-01
3.909340e-01
3.882826e-01
2.947220e-01
2.823382e-01
2.645224e-01
3.836678e-01
3.797996e-01
3.925571e-01
3.903452e-01
3.915556e-01
3.871563e-01
3.884767e-01
3.829183e-01
3.843191e-01
3.774634e-01
3.797341e-01
3.146444e-01
3.012450e-01
2.881194e-01
2.751473e-01
2.605430e-01
2.872489e-01
2.720920e-01
2.557116e-01
3.925190e-01
3.900913e-01
3.911788e-01
3.866280e-01
3.881647e-01
3.845382e-01
3.804954e-01
3.611506e-01
2.894831e-01
2.783642e-01
2.624565e-01
3.929040e-01
3.904340e-01
3.870368e-01
3.845403e-01
3.820516e-01
3.808347e-01
3.739601e-01
2.903000e-01
2.749826e-01
2.568576e-01
3.162643e-01
3.022909e-01
2.874622e-01
2.696810e-01
2.559166e-01
3.841468e-01
3.804073e-01
3.926218e-01
3.904552e-01
3.916628e-01
3.872627e-01
3.887218e-01
3.847474e-01
3.803962e-01
2.920338e-01
2.801830e-01
2.637545e-01
2.887486e-01
2.737499e-01
2.561565e-01
3.841997e-01
3.805247e-01
3.926137e-01
3.526972e-01
3.903490e-01
3.916054e-01
3.870266e-01
3.886880e-01
3.849446e-01
3.807163e-01
2.893531e-01
2.775471e-01
2.620181e-01
2.871653e-01
2.723343e-01
2.554467e-01
3.925399e-01
3.901237e-01
3.911952e-01
3.867494e-01
3.878117e-01
3.833662e-01
3.788886e-01
2.880208e-01
2.767700e-01
2.609084e-01
3.922779e-01
3.903658e-01
3.878422e-01
3.822095e-01
3.831337e-01
3.781112e-01
3.751314e-01
2.871721e-01
2.720357e-01
2.551610e-01
3.188610e-01
3.055474e-01
2.853605e-01
2.720500e-01
2.596822e-01
3.923628e-01
3.893810e-01
3.899358e-01
3.703747e-01
3.774083e-01
3.824618e-01
3.860360e-01
3.882804e-01
3.911786e-01
3.852514e-01
3.862532e-01
3.816921e-01
3.770167e-01
2.869848e-01
2.759842e-01
2.610454e-01
3.922485e-01
3.881959e-01
3.819894e-01
3.776609e-01
3.720822e-01
2.875029e-01
2.719762e-01
2.551839e-01
2.598323e-01
3.862332e-01
3.839884e-01
3.801172e-01
3.797442e-01
3.731648e-01
3.716551e-01
3.736075e-01
3.665298e-01
3.585088e-01
3.613186e-01
3.646889e-01
3.666810e-01
3.504109e-01
3.545527e-01
3.583628e-01
3.567517e-01
3.298845e-01
3.207623e-01
3.138608e-01
3.069185e-01
2.987652e-01
2.889745e-01
2.780712e-01
2.697317e-01
2.598417e-01
2.762306e-01
2.817207e-01
2.915509e-01
2.921716e-01
3.082838e-01
3.044155e-01
3.014923e-01
3.181951e-01
3.139160e-01
3.103174e-01
3.179915e-01
3.313654e-01
3.262209e-01
3.218376e-01
3.430394e-01
3.381065e-01
3.328935e-01
3.288010e-01
3.252360e-01
3.500006e-01
3.328419e-01
3.405330e-01
3.438723e-01
3.901479e-01
2.582975e-01
3.921389e-01
3.919918e-01
3.906816e-01
3.883759e-01
3.928117e-01
3.840173e-01
3.820628e-01
3.793327e-01
3.539716e-01
3.602098e-01
3.684361e-01
3.754088e-01
3.808013e-01
3.847823e-01
3.878020e-01
3.906872e-01
3.928864e-01
3.916869e-01
3.895757e-01
3.863480e-01
3.695205e-01
3.926635e-01
3.911113e-01
3.888448e-01
3.854931e-01
3.815913e-01
3.778846e-01
3.741111e-01
3.930578e-01
3.922366e-01
3.900596e-01
3.883811e-01
3.842408e-01
3.799638e-01
3.760863e-01
3.729562e-01
3.667102e-01
3.609479e-01
2.627249e-01
2.539964e-01
2.926930e-01
2.833984e-01
2.719858e-01
2.607243e-01
2.950748e-01
2.796295e-01
3.303546e-01
3.243469e-01
3.146620e-01
3.007981e-01
2.888348e-01
2.773785e-01
2.661220e-01
2.563062e-01
3.148961e-01
3.038684e-01
3.837674e-01
3.782356e-01
3.720207e-01
3.640015e-01
3.543000e-01
3.427364e-01
3.300654e-01
3.928105e-01
3.914374e-01
3.883060e-01
3.835064e-01
3.773507e-01
3.690999e-01
3.602379e-01
3.500162e-01
3.388124e-01
3.293047e-01
3.180520e-01
3.067795e-01
2.944844e-01
2.775932e-01
2.626766e-01
3.426132e-01
3.349986e-01
3.262073e-01
3.157859e-01
3.045087e-01
2.932703e-01
2.819002e-01
2.705342e-01
2.597759e-01
2.553194e-01
3.739954e-01
3.675990e-01
3.587823e-01
3.479146e-01
2.798244e-01
2.744785e-01
2.605192e-01
3.329412e-01
3.192510e-01
3.044790e-01
2.897748e-01
2.744552e-01
2.613105e-01
3.837017e-01
3.781959e-01
3.717598e-01
3.632363e-01
3.534428e-01
3.424266e-01
3.303077e-01
3.165022e-01
3.025925e-01
2.890526e-01
3.927003e-01
3.913202e-01
3.883126e-01
3.841255e-01
3.777999e-01
3.679379e-01
3.585262e-01
3.479171e-01
3.363337e-01
3.253587e-01
3.927061e-01
3.905273e-01
3.874184e-01
3.840502e-01
3.791250e-01