VARIABLES = "X" "Y" "Z" "FREF"
ZONE T="instant 109"
STRANDID=0, SOLUTIONTIME=0
Nodes=1235, Elements=2466
ZONETYPE=FETriangle
DATAPACKING=BLOCK
VARLOCATION = ([1-3]=NODAL, [4]=CELLCENTERED)
5.000000e-01
3.207480e-01
3.358937e-01
3.541398e-01
3.733753e-01
3.899507e-01
4.058806e-01
4.243949e-01
4.422254e-01
4.578490e-01
4.705628e-01
4.803789e-01
4.870014e-01
4.921338e-01
4.962525e-01
4.985330e-01
4.996950e-01
3.084000e-01
3.084000e-01
3.084000e-01
3.084000e-01
4.579006e-01
4.552891e-01
4.501873e-01
4.424572e-01
4.322709e-01
4.197839e-01
4.051134e-01
3.891553e-01
3.714824e-01
3.527655e-01
3.358672e-01
3.205214e-01
4.584000e-01
4.854287e-01
4.701718e-01
3.352882e-01
3.302272e-01
3.535622e-01
3.761188e-01
3.975880e-01
4.153554e-01
4.312943e-01
4.450775e-01
4.564438e-01
4.669417e-01
4.733068e-01
4.782393e-01
3.084000e-01
4.995941e-01
4.977077e-01
4.937371e-01
4.870982e-01
4.780889e-01
4.683194e-01
4.563028e-01
4.419443e-01
4.280499e-01
4.141383e-01
3.969442e-01
3.780303e-01
3.601602e-01
3.450679e-01
3.315898e-01
3.191753e-01
5.000000e-01
4.715122e-01
4.862264e-01
4.584000e-01
3.232691e-01
3.415426e-01
3.617176e-01
3.824130e-01
4.018115e-01
4.162366e-01
4.279017e-01
4.386402e-01
4.463581e-01
4.521146e-01
4.560626e-01
4.579909e-01
3.084000e-01
3.084000e-01
3.084000e-01
4.781518e-01
4.749037e-01
4.698473e-01
4.625953e-01
4.531420e-01
4.421334e-01
4.287781e-01
4.104884e-01
3.891237e-01
3.697951e-01
3.504708e-01
3.296640e-01
5.000000e-01
5.000000e-01
5.000000e-01
5.000000e-01
5.000000e-01
5.000000e-01
5.000000e-01
5.000000e-01
5.000000e-01
5.000000e-01
5.000000e-01
5.000000e-01
5.000000e-01
5.000000e-01
5.000000e-01
5.000000e-01
5.000000e-01
5.000000e-01
5.000000e-01
5.000000e-01
5.000000e-01
5.000000e-01
5.000000e-01
5.000000e-01
5.000000e-01
5.000000e-01
5.000000e-01
5.000000e-01
5.000000e-01
5.000000e-01
5.000000e-01
5.000000e-01
5.000000e-01
3.084000e-01
3.084000e-01
3.084000e-01
3.084000e-01
3.084000e-01
3.084000e-01
3.084000e-01
3.084000e-01
3.084000e-01
3.084000e-01
3.084000e-01
3.084000e-01
3.084000e-01
3.084000e-01
3.084000e-01
3.084000e-01
3.084000e-01
3.084000e-01
3.084000e-01
3.084000e-01
3.084000e-01
3.084000e-01
3.084000e-01
3.084000e-01
3.084000e-01
3.084000e-01
3.084000e-01
3.084000e-01
3.084000e-01
3.084000e-01
3.084000e-01
3.084000e-01
3.084000e-01
4.478605e-01
4.387713e-01
4.470797e-01
4.255429e-01
4.411242e-01
4.326663e-01
4.568943e-01
4.611433e-01
4.353301e-01
4.519090e-01
4.443003e-01
4.522611e-01
4.411976e-01
4.545505e-01
3.276759e-01
4.296037e-01
4.440173e-01
4.566801e-01
4.251642e-01
4.338450e-01
4.417694e-01
4.573545e-01
4.778209e-01
4.401225e-01
4.325915e-01
4.471576e-01
4.582166e-01
4.673470e-01
4.826550e-01
4.836746e-01
4.791885e-01
4.851616e-01
4.895497e-01
4.916623e-01
3.361110e-01
3.432228e-01
3.311199e-01
3.216238e-01
3.480372e-01
3.532497e-01
3.633130e-01
3.661234e-01
3.740631e-01
3.808999e-01
3.746535e-01
3.878596e-01
3.874621e-01
3.932773e-01
3.986736e-01
4.005234e-01
4.043491e-01
4.064733e-01
4.108194e-01
4.157780e-01
4.111499e-01
4.168328e-01
4.226783e-01
4.210203e-01
4.273947e-01
4.318067e-01
4.712991e-01
4.709733e-01
3.607235e-01
3.486083e-01
3.369826e-01
3.246809e-01
4.663469e-01
4.616228e-01
4.546103e-01
4.458005e-01
4.637328e-01
4.579239e-01
4.756066e-01
4.745692e-01
4.722608e-01
4.688531e-01
3.454707e-01
3.620775e-01
3.680058e-01
3.823893e-01
3.861710e-01
3.807817e-01
4.063183e-01
4.060965e-01
3.994162e-01
3.938965e-01
4.275396e-01
4.425896e-01
4.244935e-01
4.152235e-01
4.152009e-01
4.061929e-01
4.971995e-01
4.940788e-01
4.939434e-01
4.892456e-01
4.894762e-01
4.839891e-01
4.828900e-01
4.831450e-01
4.759928e-01
3.785369e-01
3.662641e-01
3.542543e-01
3.423759e-01
3.310958e-01
4.775991e-01
4.751135e-01
4.750156e-01
4.574602e-01
4.673998e-01
4.645734e-01
4.661390e-01
4.678258e-01
4.703332e-01
4.169888e-01
4.354907e-01
4.502980e-01
4.631877e-01
4.576196e-01
4.300128e-01
4.458147e-01
3.217922e-01
3.236864e-01
3.360982e-01
3.225824e-01
3.255340e-01
3.400022e-01
3.517239e-01
3.358990e-01
3.451478e-01
3.573943e-01
3.688382e-01
3.245088e-01
3.381350e-01
3.509358e-01
3.627801e-01
3.754506e-01
3.874520e-01
3.210229e-01
3.294922e-01
3.418605e-01
3.546752e-01
3.674909e-01
3.804080e-01
3.941838e-01
4.074185e-01
4.211720e-01
3.238828e-01
3.360663e-01
3.476654e-01
3.589293e-01
3.713527e-01
3.843702e-01
3.972954e-01
4.137187e-01
4.248050e-01
4.321211e-01
3.957623e-01
3.838415e-01
3.720299e-01
3.602964e-01
3.482441e-01
3.349136e-01
3.244517e-01
4.989581e-01
4.996160e-01
4.963660e-01
4.981698e-01
4.994715e-01
4.920985e-01
4.952354e-01
4.976448e-01
4.993436e-01
4.814261e-01
4.865813e-01
4.907381e-01
4.942405e-01
4.971275e-01
4.991842e-01
4.635977e-01
4.732007e-01
4.798375e-01
4.846569e-01
4.890803e-01
4.930710e-01
4.964294e-01
4.989193e-01
4.822732e-01
4.887669e-01
4.951872e-01
4.982752e-01
4.535697e-01
4.990815e-01
4.650752e-01
4.728081e-01
4.768896e-01
4.819384e-01
4.869902e-01
4.914630e-01
4.952405e-01
4.982645e-01
3.220531e-01
3.360003e-01
3.516401e-01
3.682897e-01
3.857083e-01
4.030558e-01
4.197027e-01
4.351146e-01
4.490400e-01
4.618054e-01
4.742033e-01
4.831205e-01
4.901691e-01
4.954569e-01
4.987738e-01
3.229720e-01
4.132101e-01
4.006855e-01
3.893246e-01
3.786853e-01
3.669594e-01
3.545696e-01
3.427557e-01
3.317574e-01
3.381788e-01
3.545396e-01
3.717038e-01
3.892008e-01
4.063839e-01
4.227455e-01
4.379236e-01
4.517829e-01
4.643122e-01
4.751822e-01
4.839602e-01
4.908443e-01
4.958583e-01
4.989478e-01
3.238565e-01
3.398324e-01
3.566825e-01
3.741434e-01
3.917236e-01
4.088271e-01
4.250304e-01
4.400288e-01
4.536484e-01
4.657315e-01
4.760844e-01
4.846007e-01
4.912795e-01
4.960999e-01
4.990228e-01
3.245043e-01
3.409885e-01
3.581800e-01
3.758443e-01
3.934828e-01
4.105455e-01
4.266333e-01
4.414669e-01
4.548513e-01
4.666434e-01
4.767264e-01
4.850428e-01
4.915568e-01
4.962395e-01
4.990601e-01
3.249412e-01
3.417577e-01
3.591801e-01
3.769745e-01
3.946565e-01
4.116856e-01
4.276905e-01
4.423924e-01
4.556132e-01
4.672246e-01
4.771470e-01
4.853264e-01
4.917280e-01
4.963200e-01
4.990808e-01
3.252205e-01
3.422489e-01
3.598133e-01
3.776932e-01
3.953956e-01
4.124050e-01
4.283472e-01
4.429639e-01
4.560780e-01
4.675834e-01
4.774058e-01
4.855004e-01
4.510707e-01
4.601850e-01
4.676585e-01
4.737760e-01
4.798133e-01
4.853782e-01
4.901716e-01
4.941885e-01
4.972378e-01
4.990726e-01
4.997937e-01
4.918295e-01
4.963667e-01
4.990923e-01
3.253958e-01
3.425503e-01
3.602018e-01
3.781273e-01
3.958460e-01
4.128364e-01
4.287431e-01
4.433027e-01
4.563561e-01
4.677964e-01
4.775614e-01
4.856032e-01
4.918899e-01
4.963941e-01
4.990994e-01
3.255078e-01
3.427369e-01
3.604351e-01
3.783934e-01
3.961183e-01
4.131030e-01
4.289829e-01
4.435118e-01
4.565253e-01
4.679292e-01
4.776572e-01
4.856681e-01
4.919275e-01
4.324927e-01
4.166118e-01
4.044875e-01
3.971072e-01
3.862791e-01
3.740350e-01
3.615233e-01
3.499646e-01
3.374598e-01
3.253662e-01
4.964119e-01
4.991044e-01
3.255808e-01
3.428498e-01
3.605937e-01
3.785773e-01
3.963174e-01
4.132952e-01
4.291628e-01
4.436659e-01
4.566551e-01
4.680303e-01
4.777336e-01
4.857196e-01
4.919585e-01
4.964262e-01
4.991080e-01
3.255797e-01
3.429444e-01
3.607464e-01
3.787708e-01
3.965248e-01
4.135065e-01
4.293565e-01
4.438400e-01
4.568005e-01
4.681501e-01
4.778242e-01
4.857840e-01
4.919974e-01
4.964444e-01
4.991124e-01
3.257352e-01
3.431411e-01
3.609847e-01
3.790511e-01
3.968382e-01
4.138176e-01
4.296514e-01
4.441004e-01
4.570273e-01
4.683361e-01
4.779711e-01
4.858884e-01
4.920629e-01
4.964758e-01
4.991204e-01
3.258982e-01
3.433815e-01
3.613468e-01
3.795213e-01
3.973558e-01
4.143363e-01
4.301308e-01
4.445332e-01
4.574015e-01
4.686515e-01
4.782189e-01
4.860689e-01
4.921769e-01
4.965329e-01
4.991361e-01
3.258991e-01
3.437212e-01
3.619821e-01
3.803301e-01
3.982203e-01
4.151677e-01
4.309003e-01
4.452232e-01
4.580096e-01
4.691625e-01
4.786258e-01
4.714065e-01
4.771551e-01
4.823901e-01
4.871860e-01
4.913258e-01
4.946523e-01
4.974539e-01
4.992990e-01
4.863640e-01
4.923663e-01
4.966293e-01
4.991636e-01
3.263447e-01
3.445869e-01
3.631744e-01
3.816886e-01
3.995647e-01
4.164214e-01
4.320506e-01
4.462736e-01
4.589376e-01
4.699486e-01
4.792471e-01
4.868178e-01
4.926580e-01
4.967800e-01
4.992061e-01
3.272663e-01
3.462153e-01
3.652052e-01
3.837709e-01
4.014590e-01
4.181399e-01
4.336745e-01
4.477860e-01
4.602824e-01
4.710736e-01
4.801311e-01
4.874699e-01
4.930834e-01
4.649437e-01
4.969988e-01
4.992627e-01
3.287600e-01
3.491715e-01
3.684755e-01
3.865883e-01
4.037194e-01
4.203115e-01
4.358842e-01
4.499020e-01
4.621271e-01
4.725605e-01
4.812707e-01
4.883791e-01
4.937010e-01
4.972885e-01
4.993111e-01
3.304093e-01
3.464715e-01
3.685107e-01
3.908971e-01
3.316977e-01
3.555852e-01
3.733534e-01
3.889057e-01
4.059305e-01
4.230346e-01
4.389203e-01
4.528526e-01
4.645392e-01
4.742515e-01
4.824779e-01
4.897846e-01
4.947551e-01
4.974253e-01
4.992804e-01
4.994993e-01
4.992330e-01
4.978152e-01
4.995191e-01
4.756859e-01
4.804947e-01
4.850391e-01
4.891883e-01
4.927893e-01
4.956433e-01
4.974990e-01
4.993882e-01
4.986307e-01
4.968965e-01
4.947143e-01
4.992424e-01
4.977313e-01
4.956908e-01
4.930623e-01
4.900734e-01
4.986481e-01
4.968101e-01
4.942869e-01
4.911910e-01
4.876434e-01
4.838884e-01
3.084000e-01
3.084000e-01
3.084000e-01
3.084000e-01
3.084000e-01
3.084000e-01
3.084000e-01
3.084000e-01
3.084000e-01
3.084000e-01
3.084000e-01
3.084000e-01
3.084000e-01
3.084000e-01
3.084000e-01
3.084000e-01
3.084000e-01
3.084000e-01
3.084000e-01
3.084000e-01
3.084000e-01
3.084000e-01
3.084000e-01
3.084000e-01
3.084000e-01
3.084000e-01
3.084000e-01
3.084000e-01
3.084000e-01
3.084000e-01
3.084000e-01
3.084000e-01
3.084000e-01
3.084000e-01
3.084000e-01
3.084000e-01
3.084000e-01
3.084000e-01
3.084000e-01
3.084000e-01
3.084000e-01
3.084000e-01
3.084000e-01
3.084000e-01
3.084000e-01
3.084000e-01
3.084000e-01
3.084000e-01
3.084000e-01
3.084000e-01
3.084000e-01
3.084000e-01
3.084000e-01
3.084000e-01
3.084000e-01
3.084000e-01
3.084000e-01
3.084000e-01
3.084000e-01
3.084000e-01
3.084000e-01
3.084000e-01
3.084000e-01
3.084000e-01
3.084000e-01
3.084000e-01
3.084000e-01
3.084000e-01
3.084000e-01
3.084000e-01
3.084000e-01
3.084000e-01
3.084000e-01
3.084000e-01
3.084000e-01
3.084000e-01
3.084000e-01
3.084000e-01
3.084000e-01
3.084000e-01
3.084000e-01
3.084000e-01
3.084000e-01
3.084000e-01
3.084000e-01
3.084000e-01
3.084000e-01
3.084000e-01
3.084000e-01
3.084000e-01
3.084000e-01
3.084000e-01
3.084000e-01
4.584000e-01
4.584000e-01
4.584000e-01
4.584000e-01
4.584000e-01
4.584000e-01
4.584000e-01
4.584000e-01
4.584000e-01
4.584000e-01
4.584000e-01
4.584000e-01
4.584000e-01
4.584000e-01
4.584000e-01
4.584000e-01
4.584000e-01
4.584000e-01
4.584000e-01
4.584000e-01
4.584000e-01
4.584000e-01
4.584000e-01
4.584000e-01
4.584000e-01
4.584000e-01
4.584000e-01
4.584000e-01
4.584000e-01
4.584000e-01
4.584000e-01
4.584000e-01
4.584000e-01
4.270538e-01
4.007703e-01
4.032178e-01
4.227390e-01
4.165128e-01
4.289664e-01
4.547428e-01
3.673487e-01
4.385577e-01
4.508227e-01
4.501032e-01
4.446883e-01
4.469005e-01
4.399914e-01
4.349387e-01
4.412966e-01
4.361623e-01
4.293389e-01
4.273269e-01
4.235258e-01
4.266661e-01
4.165324e-01
4.568551e-01
4.577707e-01
4.132184e-01
4.154704e-01
4.156447e-01
4.124473e-01
3.909546e-01
4.039515e-01
3.947788e-01
3.823671e-01
3.861105e-01
3.792072e-01
3.620660e-01
4.198398e-01
4.086848e-01
3.950272e-01
3.858865e-01
3.844258e-01
3.851804e-01
3.819596e-01
4.313343e-01
4.189555e-01
4.068468e-01
4.195555e-01
4.079615e-01
3.931481e-01
3.810166e-01
4.531325e-01
4.554691e-01
4.574010e-01
3.788660e-01
3.457877e-01
3.620150e-01
3.630948e-01
3.922155e-01
3.819217e-01
3.788346e-01
4.051025e-01
4.018414e-01
3.966090e-01
3.918499e-01
4.178687e-01
4.135369e-01
4.079002e-01
4.025553e-01
4.562322e-01
4.531529e-01
4.440378e-01
4.443171e-01
4.304751e-01
4.296203e-01
4.355014e-01
4.394893e-01
4.108341e-01
4.222536e-01
4.337773e-01
4.579165e-01
4.579340e-01
4.579690e-01
4.579380e-01
4.578793e-01
4.579290e-01
4.578797e-01
4.578553e-01
4.469421e-01
4.506907e-01
4.538590e-01
4.564362e-01
4.577488e-01
4.580328e-01
4.581403e-01
4.580003e-01
4.580695e-01
4.577945e-01
4.540133e-01
4.571055e-01
4.568870e-01
4.553421e-01
4.527688e-01
4.495141e-01
4.577944e-01
4.563745e-01
4.538417e-01
4.507313e-01
4.467518e-01
4.427864e-01
4.575054e-01
4.553814e-01
4.524116e-01
4.486834e-01
4.440364e-01
4.375103e-01
4.349330e-01
3.258890e-01
3.435348e-01
3.267277e-01
3.735387e-01
3.597132e-01
3.443466e-01
3.274346e-01
3.882754e-01
3.752239e-01
3.612618e-01
3.461567e-01
4.382382e-01
4.434165e-01
4.478942e-01
4.516682e-01
4.557325e-01
4.574825e-01
3.290955e-01
4.570515e-01
4.540151e-01
4.486227e-01
4.407728e-01
4.293713e-01
4.164202e-01
4.016512e-01
3.863165e-01
3.693937e-01
3.471772e-01
3.313601e-01
4.157619e-01
4.029013e-01
3.899517e-01
3.772471e-01
3.641354e-01
3.499208e-01
3.333025e-01
3.261720e-01
3.782670e-01
3.561988e-01
3.373190e-01
4.370529e-01
4.251376e-01
4.144769e-01
4.011304e-01
4.567610e-01
4.536431e-01
4.472741e-01
4.571054e-01
4.527032e-01
4.459892e-01
4.381775e-01
4.262878e-01
4.147894e-01
4.038913e-01
3.896354e-01
3.724874e-01
3.534279e-01
3.323680e-01
3.692900e-01
3.507030e-01
3.302900e-01
4.377201e-01
4.256180e-01
4.143901e-01
3.997152e-01
4.573935e-01
4.547543e-01
4.481241e-01
4.568869e-01
4.517390e-01
4.119797e-01
3.988071e-01
3.874143e-01
3.750099e-01
3.610961e-01
3.455698e-01
3.303016e-01
3.187512e-01
4.455434e-01
4.401074e-01
4.307751e-01
4.141708e-01
3.972690e-01
3.840554e-01
3.677216e-01
3.493247e-01
3.294351e-01
3.673778e-01
3.488146e-01
3.291039e-01
4.411268e-01
4.308270e-01
4.172736e-01
4.017991e-01
4.568654e-01
4.533040e-01
4.475940e-01
4.572957e-01
4.537867e-01
4.476550e-01
4.395983e-01
4.280348e-01
4.160443e-01
4.007111e-01
3.848910e-01
3.673486e-01
3.485908e-01
3.289353e-01
3.671195e-01
4.270246e-01
3.482844e-01
3.287340e-01
4.570103e-01
4.528190e-01
4.465984e-01
4.385614e-01
4.287804e-01
4.181892e-01
4.032853e-01
3.842684e-01
3.663746e-01
3.477278e-01
3.284100e-01
4.357106e-01
4.253439e-01
4.147032e-01
3.999573e-01
4.563254e-01
4.524339e-01
4.454249e-01
4.567055e-01
4.515044e-01
3.956010e-01
3.835078e-01
3.704745e-01
3.578757e-01
3.435592e-01
3.272657e-01
4.443363e-01
4.369286e-01
4.268596e-01
4.129023e-01
3.972517e-01
3.826429e-01
3.653294e-01
3.469079e-01
3.279038e-01
3.640815e-01
3.456680e-01
3.270557e-01
4.563779e-01
4.524996e-01
4.441303e-01
4.561914e-01
4.494687e-01
4.423189e-01
4.339151e-01
4.229399e-01
4.103393e-01
3.960550e-01
3.799055e-01
3.619108e-01
3.434587e-01
3.255196e-01
4.564739e-01
4.524229e-01
4.456429e-01
4.375774e-01
4.261491e-01
4.127074e-01
3.951205e-01
3.779615e-01
3.578703e-01
3.389886e-01
3.241721e-01
4.560854e-01
4.529507e-01
4.462398e-01
4.384029e-01
4.271966e-01
4.136355e-01
3.976965e-01
3.755257e-01
3.589712e-01
3.425881e-01
3.275807e-01
4.563939e-01
4.542527e-01
4.495882e-01
4.403781e-01
4.291811e-01
3.812200e-01
3.653215e-01
3.519168e-01
3.417620e-01
3.261633e-01
4.147174e-01
4.002913e-01
3.854161e-01
3.690141e-01
3.493517e-01
3.301541e-01
3.738555e-01
3.559140e-01
3.331900e-01
4.570816e-01
4.535635e-01
4.475308e-01
4.384260e-01
4.273284e-01
4.154032e-01
4.024378e-01
3.874679e-01
3.702959e-01
3.511400e-01
3.300860e-01
4.372980e-01
4.257240e-01
4.109542e-01
3.966508e-01
4.565521e-01
4.522699e-01
4.452656e-01
4.569426e-01
4.528703e-01
4.460801e-01
4.354405e-01
4.216340e-01
4.102090e-01
3.986655e-01
3.838391e-01
3.669283e-01
3.484353e-01
3.442247e-01
3.294746e-01
3.288153e-01
3.645854e-01
3.467225e-01
3.279293e-01
4.360627e-01
4.226280e-01
4.080502e-01
3.945001e-01
4.564791e-01
4.528862e-01
4.457216e-01
4.568079e-01
4.514032e-01
4.435032e-01
4.344195e-01
4.237028e-01
4.096944e-01
3.926764e-01
3.792661e-01
3.630174e-01
3.453490e-01
3.271192e-01
3.614399e-01
3.438983e-01
3.266773e-01
4.571108e-01
4.539867e-01
4.468555e-01
3.254393e-01
4.566471e-01
4.507715e-01
4.440622e-01
4.376825e-01
4.270453e-01
4.138982e-01
3.962492e-01
3.762496e-01
3.578755e-01
3.437388e-01
3.273608e-01
4.772339e-01
4.798069e-01
4.791322e-01
4.791817e-01
4.793451e-01
4.792569e-01
4.792726e-01
4.792886e-01
4.791591e-01
4.792512e-01
4.791705e-01
4.792489e-01
4.791458e-01
4.792226e-01
4.791864e-01
4.790878e-01
4.791766e-01
4.791495e-01
4.792632e-01
4.792816e-01
4.792417e-01
4.792042e-01
4.791616e-01
4.790362e-01
4.790881e-01
4.792276e-01
4.790966e-01
4.791001e-01
4.791052e-01
4.793209e-01
4.792343e-01
4.791758e-01
-4.625929e-18
3.835632e-01
3.703720e-01
3.529660e-01
3.325520e-01
3.129512e-01
2.919947e-01
2.643652e-01
2.333168e-01
2.009336e-01
1.690287e-01
1.386945e-01
1.132681e-01
8.834231e-02
6.110241e-02
3.827376e-02
1.746252e-02
3.935600e-01
3.550980e-01
3.734105e-01
3.391460e-01
2.139092e-02
5.331412e-02
8.638256e-02
1.198423e-01
1.525531e-01
1.841522e-01
2.145080e-01
2.422576e-01
2.685729e-01
2.927236e-01
3.119676e-01
3.277142e-01
1.156482e-17
0.000000e+00
0.000000e+00
3.286382e-01
3.489557e-01
3.257989e-01
2.974940e-01
2.669838e-01
2.384081e-01
2.080757e-01
1.765827e-01
1.446300e-01
1.084189e-01
7.232537e-02
3.736700e-02
3.935600e-01
2.014192e-02
4.782288e-02
7.889024e-02
1.128509e-01
1.463934e-01
1.751482e-01
2.044205e-01
2.338487e-01
2.584052e-01
2.801597e-01
3.040317e-01
3.272508e-01
3.468208e-01
3.618399e-01
3.742301e-01
3.848729e-01
-4.625929e-18
0.000000e+00
0.000000e+00
-8.095376e-18
3.250040e-01
3.057437e-01
2.815865e-01
2.527664e-01
2.206311e-01
1.920354e-01
1.644102e-01
1.331367e-01
1.043790e-01
7.565038e-02
4.623298e-02
1.936151e-02
3.391460e-01
3.739017e-01
3.551216e-01
2.788850e-02
6.182881e-02
9.304873e-02
1.241129e-01
1.545020e-01
1.839779e-01
2.132518e-01
2.472933e-01
2.788306e-01
3.041162e-01
3.264727e-01
3.495639e-01
-1.387779e-17
-1.387779e-17
-1.387779e-17
-1.387779e-17
-1.387779e-17
-1.387779e-17
-1.387779e-17
-1.387779e-17
-1.387779e-17
-1.387779e-17
-1.387779e-17
-1.387779e-17
-1.387779e-17
-1.387779e-17
-1.387779e-17
-1.387779e-17
-1.387779e-17
-1.387779e-17
-1.387779e-17
-1.387779e-17
-1.387779e-17
-1.387779e-17
-1.387779e-17
-1.387779e-17
-1.387779e-17
-1.387779e-17
-1.387779e-17
-1.387779e-17
-1.387779e-17
-1.387779e-17
-1.387779e-17
-1.387779e-17
-1.387779e-17
3.935600e-01
3.935600e-01
3.935600e-01
3.935600e-01
3.935600e-01
3.935600e-01
3.935600e-01
3.935600e-01
3.935600e-01
3.935600e-01
3.935600e-01
3.935600e-01
3.935600e-01
3.935600e-01
3.935600e-01
3.935600e-01
3.935600e-01
3.935600e-01
3.935600e-01
3.935600e-01
3.935600e-01
3.935600e-01
3.935600e-01
3.935600e-01
3.935600e-01
3.935600e-01
3.935600e-01
3.935600e-01
3.935600e-01
3.935600e-01
3.935600e-01
3.935600e-01
3.935600e-01
2.223083e-01
2.397493e-01
2.238744e-01
2.625133e-01
2.353921e-01
2.505990e-01
2.030951e-01
1.932534e-01
2.459424e-01
2.139585e-01
2.293409e-01
2.132132e-01
2.352544e-01
2.082878e-01
3.776619e-01
2.558138e-01
2.298883e-01
2.035761e-01
2.631263e-01
2.485528e-01
2.341790e-01
2.020566e-01
1.472657e-01
2.372598e-01
2.507282e-01
2.237188e-01
2.000938e-01
1.777267e-01
1.305533e-01
1.267238e-01
1.427529e-01
1.209058e-01
1.016911e-01
9.092953e-02
3.701749e-01
3.635906e-01
3.746460e-01
3.828291e-01
3.589849e-01
3.538568e-01
3.435166e-01
3.405197e-01
3.317782e-01
3.239063e-01
3.311114e-01
3.155391e-01
3.160271e-01
3.087604e-01
3.017604e-01
2.993008e-01
2.941119e-01
2.911691e-01
2.850042e-01
2.777205e-01
2.845273e-01
2.761348e-01
2.671013e-01
2.697070e-01
2.594875e-01
2.520773e-01
1.669646e-01
1.678813e-01
3.462349e-01
3.584302e-01
3.693815e-01
3.802398e-01
1.803346e-01
1.921051e-01
2.081573e-01
2.264109e-01
1.869542e-01
2.007628e-01
1.542673e-01
1.574297e-01
1.642247e-01
1.737146e-01
3.614554e-01
3.448186e-01
3.384844e-01
3.221465e-01
3.176035e-01
3.240452e-01
2.913854e-01
2.916944e-01
3.007769e-01
3.079701e-01
2.592487e-01
2.326252e-01
2.642069e-01
2.785488e-01
2.785825e-01
2.915602e-01
5.284582e-02
7.672103e-02
7.758796e-02
1.031442e-01
1.020445e-01
1.255171e-01
1.296814e-01
1.287280e-01
1.530715e-01
3.266646e-01
3.403683e-01
3.528511e-01
3.643882e-01
3.746673e-01
1.479834e-01
1.557791e-01
1.560775e-01
2.018172e-01
1.775877e-01
1.848556e-01
1.808713e-01
1.764626e-01
1.696663e-01
2.758991e-01
2.456580e-01
2.173286e-01
1.883006e-01
2.014555e-01
2.551254e-01
2.263830e-01
3.826876e-01
3.810867e-01
3.701864e-01
3.820217e-01
3.795097e-01
3.666040e-01
3.553735e-01
3.703672e-01
3.617637e-01
3.496703e-01
3.375772e-01
3.803867e-01
3.683269e-01
3.561518e-01
3.440794e-01
3.302073e-01
3.160395e-01
3.833331e-01
3.760783e-01
3.648717e-01
3.524280e-01
3.390434e-01
3.244838e-01
3.076023e-01
2.898451e-01
2.694701e-01
3.809199e-01
3.702154e-01
3.593449e-01
3.480945e-01
3.348092e-01
3.197804e-01
3.035727e-01
2.807790e-01
2.637057e-01
2.515379e-01
3.055687e-01
3.204148e-01
3.340565e-01
3.466792e-01
3.587841e-01
3.712585e-01
3.804354e-01
3.226158e-02
1.959236e-02
6.017276e-02
4.274217e-02
2.298289e-02
8.853878e-02
6.886129e-02
4.847363e-02
2.561212e-02
1.350145e-01
1.150591e-01
9.579209e-02
7.567272e-02
5.351900e-02
2.855050e-02
1.872889e-01
1.614964e-01
1.405559e-01
1.229131e-01
1.039254e-01
8.295169e-02
5.964803e-02
3.285658e-02
1.319568e-01
1.053892e-01
6.920731e-02
4.149432e-02
2.104151e-01
3.029263e-02
1.835893e-01
1.626424e-01
1.502541e-01
1.331741e-01
1.133163e-01
9.200053e-02
6.882505e-02
4.162351e-02
3.824680e-01
3.702753e-01
3.554564e-01
3.381755e-01
3.181652e-01
2.958817e-01
2.717529e-01
2.463235e-01
2.199161e-01
1.916659e-01
1.585285e-01
1.288198e-01
9.866239e-02
6.724938e-02
3.499588e-02
3.816924e-01
2.815269e-01
2.990838e-01
3.137297e-01
3.264926e-01
3.396186e-01
3.525342e-01
3.640310e-01
3.740816e-01
3.682867e-01
3.525644e-01
3.344194e-01
3.138833e-01
2.912939e-01
2.669948e-01
2.412943e-01
2.142248e-01
1.855106e-01
1.555694e-01
1.256285e-01
9.524622e-02
6.422267e-02
3.242034e-02
3.809422e-01
3.667615e-01
3.503963e-01
3.316877e-01
3.107292e-01
2.878548e-01
2.633423e-01
2.374335e-01
2.102454e-01
1.819181e-01
1.527864e-01
1.231348e-01
9.297552e-02
6.232882e-02
3.124431e-02
3.803905e-01
3.656868e-01
3.488654e-01
3.297591e-01
3.084984e-01
2.853987e-01
2.607375e-01
2.347487e-01
2.076303e-01
1.795660e-01
1.507711e-01
1.213817e-01
9.149836e-02
6.120728e-02
3.064287e-02
3.800174e-01
3.649681e-01
3.478357e-01
3.284664e-01
3.069956e-01
2.837516e-01
2.589996e-01
2.330000e-01
2.059529e-01
1.780483e-01
1.494347e-01
1.202427e-01
9.057376e-02
6.055113e-02
3.030517e-02
3.797784e-01
3.645075e-01
3.471806e-01
3.276398e-01
3.060430e-01
2.827049e-01
2.579121e-01
2.319115e-01
2.049217e-01
1.771037e-01
1.486059e-01
1.195380e-01
2.157202e-01
1.955244e-01
1.769055e-01
1.598008e-01
1.406384e-01
1.200333e-01
9.864987e-02
7.601125e-02
5.248374e-02
3.043913e-02
1.436025e-02
9.002065e-02
6.016702e-02
3.011491e-02
3.796282e-01
3.642242e-01
3.467775e-01
3.271387e-01
3.054602e-01
2.820746e-01
2.572535e-01
2.312633e-01
2.043016e-01
1.765404e-01
1.481052e-01
1.191198e-01
8.969043e-02
5.994102e-02
2.999662e-02
3.795322e-01
3.640486e-01
3.465350e-01
3.268309e-01
3.051071e-01
2.816840e-01
2.568534e-01
2.308620e-01
2.039232e-01
1.761882e-01
1.477958e-01
1.188550e-01
8.948364e-02
2.508986e-01
2.764681e-01
2.939216e-01
3.038189e-01
3.174720e-01
3.318099e-01
3.453996e-01
3.571061e-01
3.689456e-01
3.796535e-01
5.979316e-02
2.991382e-02
3.794696e-01
3.639423e-01
3.463700e-01
3.266179e-01
3.048483e-01
2.814019e-01
2.565528e-01
2.305658e-01
2.036324e-01
1.759194e-01
1.475488e-01
1.186445e-01
8.931290e-02
5.967467e-02
2.985310e-02
3.794705e-01
3.638532e-01
3.462110e-01
3.263935e-01
3.045786e-01
2.810915e-01
2.562284e-01
2.302305e-01
2.033059e-01
1.756003e-01
1.472549e-01
1.183804e-01
8.909873e-02
5.952252e-02
2.977930e-02
3.793370e-01
3.636677e-01
3.459625e-01
3.260679e-01
3.041701e-01
2.806332e-01
2.557336e-01
2.297277e-01
2.027955e-01
1.751037e-01
1.467776e-01
1.179511e-01
8.873604e-02
5.926005e-02
2.964430e-02
3.791970e-01
3.634407e-01
3.455843e-01
3.255205e-01
3.034937e-01
2.798668e-01
2.549264e-01
2.288891e-01
2.019503e-01
1.742578e-01
1.459682e-01
1.172050e-01
8.810170e-02
5.878008e-02
2.938025e-02
3.791962e-01
3.631195e-01
3.449188e-01
3.245751e-01
3.023583e-01
2.786319e-01
2.536236e-01
2.275441e-01
2.005671e-01
1.728772e-01
1.446284e-01
1.666611e-01
1.494089e-01
1.315288e-01
1.124711e-01
9.273037e-02
7.293191e-02
5.039454e-02
2.646642e-02
1.159744e-01
8.703684e-02
5.795986e-02
2.890919e-02
3.788128e-01
3.622980e-01
3.436631e-01
3.229765e-01
3.005795e-01
2.767548e-01
2.516591e-01
2.254771e-01
1.984346e-01
1.707287e-01
1.425559e-01
1.140546e-01
8.537051e-02
5.665365e-02
2.816540e-02
3.780169e-01
3.607422e-01
3.415043e-01
3.204995e-01
2.980447e-01
2.741515e-01
2.488502e-01
2.224584e-01
1.952950e-01
1.675999e-01
1.395496e-01
1.112345e-01
8.287801e-02
1.839221e-01
5.470103e-02
2.714272e-02
3.767186e-01
3.578816e-01
3.379730e-01
3.170954e-01
2.949757e-01
2.708103e-01
2.449591e-01
2.181472e-01
1.908889e-01
1.633602e-01
1.355675e-01
1.071722e-01
7.911583e-02
5.200176e-02
2.623724e-02
3.752729e-01
3.604962e-01
3.379347e-01
3.117683e-01
3.741346e-01
3.515098e-01
3.325767e-01
3.142489e-01
2.919254e-01
2.665366e-01
2.394765e-01
2.119540e-01
1.849414e-01
1.583842e-01
1.312064e-01
1.005535e-01
7.223169e-02
5.067654e-02
2.681567e-02
2.237086e-02
2.768371e-02
4.669046e-02
2.192320e-02
1.540223e-01
1.382926e-01
1.213964e-01
1.034155e-01
8.460900e-02
6.586118e-02
4.994734e-02
2.472653e-02
3.697824e-02
5.562220e-02
7.251014e-02
2.751401e-02
4.757629e-02
6.550320e-02
8.300349e-02
9.913681e-02
3.674390e-02
5.638885e-02
7.536855e-02
9.344213e-02
1.104714e-01
1.259047e-01
3.391460e-01
3.391460e-01
3.391460e-01
3.391460e-01
3.391460e-01
3.391460e-01
3.391460e-01
3.391460e-01
3.391460e-01
3.391460e-01
3.391460e-01
3.391460e-01
3.391460e-01
3.391460e-01
3.391460e-01
3.391460e-01
3.391460e-01
3.391460e-01
3.391460e-01
3.391460e-01
3.391460e-01
3.391460e-01
3.391460e-01
3.391460e-01
3.391460e-01
3.391460e-01
3.391460e-01
3.391460e-01
3.391460e-01
3.391460e-01
3.391460e-01
3.391460e-01
3.391460e-01
3.574429e-01
3.756318e-01
3.666041e-01
3.573105e-01
3.754140e-01
3.573802e-01
3.754799e-01
3.573898e-01
3.754943e-01
3.576795e-01
3.760284e-01
3.668418e-01
3.657128e-01
3.575591e-01
3.755625e-01
3.574381e-01
3.754872e-01
3.572744e-01
3.751124e-01
3.712049e-01
3.560926e-01
3.752252e-01
3.575151e-01
3.754632e-01
3.580763e-01
3.744820e-01
3.570075e-01
3.773247e-01
3.562501e-01
3.750473e-01
3.573573e-01
3.753279e-01
3.572754e-01
3.752889e-01
3.573614e-01
3.754638e-01
3.573865e-01
3.754871e-01
3.573976e-01
3.755128e-01
3.574365e-01
3.755939e-01
3.592237e-01
3.782485e-01
3.558527e-01
3.748697e-01
3.587216e-01
3.776602e-01
3.574827e-01
3.761084e-01
3.551248e-01
3.748093e-01
3.755496e-01
3.574706e-01
3.578923e-01
3.758746e-01
3.576140e-01
3.755744e-01
3.574643e-01
3.755162e-01
3.469447e-17
-2.428613e-17
3.469447e-17
-2.428613e-17
3.469447e-17
-2.428613e-17
3.469447e-17
-2.428613e-17
3.469447e-17
-2.428613e-17
3.469447e-17
-2.428613e-17
3.469447e-17
-2.428613e-17
3.469447e-17
-2.428613e-17
3.469447e-17
-2.428613e-17
3.469447e-17
-2.428613e-17
3.469447e-17
-2.428613e-17
3.469447e-17
-2.428613e-17
3.469447e-17
-2.428613e-17
3.469447e-17
-2.428613e-17
3.469447e-17
-2.428613e-17
3.469447e-17
-2.428613e-17
3.469447e-17
1.666001e-01
2.225167e-01
2.180504e-01
1.772633e-01
1.914358e-01
1.616119e-01
5.778861e-02
2.741998e-01
1.334080e-01
8.300252e-02
8.682000e-02
1.112783e-01
1.020317e-01
1.286006e-01
1.447718e-01
1.240478e-01
1.410425e-01
1.606197e-01
1.658983e-01
1.753751e-01
1.675906e-01
1.913930e-01
3.760266e-02
2.401168e-02
1.984467e-01
1.936877e-01
1.933134e-01
2.000445e-01
2.393429e-01
2.166882e-01
2.329812e-01
2.528358e-01
2.470815e-01
2.575509e-01
2.811384e-01
1.840247e-01
2.076230e-01
2.325599e-01
2.474312e-01
2.496946e-01
2.485290e-01
2.534510e-01
1.551816e-01
1.860292e-01
2.112019e-01
1.846719e-01
2.090406e-01
2.357226e-01
2.548665e-01
6.929282e-02
5.175371e-02
3.024634e-02
2.580525e-01
3.009343e-01
2.812040e-01
2.798084e-01
2.372711e-01
2.535082e-01
2.580986e-01
2.145287e-01
2.205766e-01
2.298518e-01
2.378744e-01
1.884578e-01
1.977823e-01
2.091602e-01
2.192710e-01
4.452804e-02
6.915936e-02
1.138464e-01
1.127515e-01
1.575492e-01
1.598655e-01
1.430703e-01
1.303064e-01
2.033369e-01
1.784165e-01
1.482153e-01
2.104826e-02
2.066332e-02
1.987383e-02
2.057561e-02
2.184229e-02
2.077444e-02
2.183370e-02
2.234100e-02
1.018494e-01
8.371671e-02
6.436265e-02
4.238557e-02
2.442468e-02
1.834414e-02
1.542938e-02
1.913865e-02
1.740394e-02
2.355392e-02
6.326545e-02
3.442546e-02
3.721329e-02
5.285939e-02
7.163063e-02
8.982021e-02
2.355488e-02
4.304506e-02
6.448482e-02
8.349751e-02
1.026810e-01
1.186204e-01
2.862502e-02
5.252032e-02
7.385329e-02
9.388173e-02
1.138519e-01
1.368039e-01
1.447891e-01
3.223770e-01
3.035035e-01
3.215270e-01
2.657055e-01
2.841426e-01
3.025822e-01
3.208071e-01
2.436652e-01
2.633203e-01
2.821709e-01
3.005097e-01
1.344537e-01
1.162426e-01
9.757722e-02
7.827106e-02
4.938058e-02
2.898769e-02
3.191030e-01
3.513495e-02
6.325248e-02
9.417124e-02
1.258964e-01
1.605331e-01
1.916371e-01
2.209229e-01
2.467592e-01
2.714385e-01
2.993301e-01
3.167508e-01
1.930612e-01
2.186346e-01
2.409735e-01
2.604135e-01
2.784528e-01
2.961183e-01
3.147062e-01
3.220906e-01
2.589298e-01
2.885359e-01
3.103973e-01
1.382581e-01
1.714309e-01
1.958046e-01
2.218671e-01
3.872869e-02
6.586756e-02
1.003817e-01
3.442742e-02
7.204406e-02
1.059444e-01
1.346516e-01
1.685506e-01
1.951418e-01
2.168004e-01
2.414846e-01
2.671772e-01
2.919235e-01
3.156930e-01
2.715795e-01
2.951914e-01
3.178664e-01
1.361310e-01
1.702348e-01
1.959883e-01
2.244065e-01
3.036036e-02
5.769800e-02
9.651595e-02
3.721394e-02
7.786167e-02
2.010057e-01
2.260166e-01
2.450320e-01
2.636250e-01
2.823830e-01
3.011844e-01
3.178544e-01
3.294362e-01
1.078036e-01
1.282031e-01
1.567270e-01
1.964513e-01
2.287092e-01
2.502639e-01
2.736994e-01
2.968212e-01
3.187523e-01
2.741607e-01
2.974205e-01
3.190943e-01
1.246502e-01
1.565844e-01
1.897716e-01
2.206537e-01
3.747810e-02
6.816186e-02
9.894542e-02
3.179904e-02
6.487064e-02
9.866890e-02
1.299381e-01
1.640633e-01
1.924519e-01
2.226234e-01
2.489769e-01
2.741999e-01
2.976828e-01
3.192681e-01
2.745065e-01
1.666750e-01
2.980412e-01
3.194754e-01
3.566663e-02
7.131290e-02
1.033460e-01
1.333960e-01
1.621047e-01
1.877456e-01
2.179255e-01
2.499367e-01
2.755000e-01
2.986904e-01
3.198084e-01
1.424319e-01
1.709184e-01
1.953249e-01