VARIABLES = "X" "Y" "Z" "FREF"
ZONE T="instant 003"
STRANDID=0, SOLUTIONTIME=0
Nodes=3151, Elements=6298
ZONETYPE=FETriangle
DATAPACKING=BLOCK
VARLOCATION = ([1-3]=NODAL, [4]=CELLCENTERED)
5.000000e-01
5.356969e-02
8.250036e-02
1.092772e-01
1.336180e-01
1.613194e-01
1.899189e-01
2.187157e-01
2.475629e-01
2.760770e-01
3.038824e-01
3.300746e-01
3.545620e-01
3.781490e-01
3.997008e-01
4.184223e-01
4.340373e-01
4.461573e-01
4.571694e-01
4.683132e-01
4.779783e-01
4.857330e-01
4.915353e-01
4.957468e-01
4.983856e-01
4.996954e-01
3.280000e-02
3.280000e-02
3.280000e-02
3.280000e-02
3.280000e-02
3.280000e-02
3.280000e-02
3.280000e-02
3.280000e-02
3.280000e-02
3.280000e-02
3.280000e-02
1.823676e-01
1.811724e-01
1.788825e-01
1.755865e-01
1.716310e-01
1.677574e-01
1.629051e-01
1.569032e-01
1.500089e-01
1.430249e-01
1.353525e-01
1.265131e-01
1.181451e-01
1.097489e-01
1.008497e-01
8.941237e-02
7.828969e-02
6.907013e-02
5.813298e-02
4.569626e-02
1.828000e-01
4.767919e-01
4.457207e-01
4.193242e-01
3.918973e-01
3.555253e-01
3.193335e-01
2.883173e-01
2.583636e-01
2.267113e-01
2.002734e-01
2.779985e-01
9.508431e-02
7.996177e-02
2.909736e-01
2.696133e-01
9.218621e-02
1.079540e-01
8.397364e-02
1.165082e-01
6.187970e-02
1.243941e-01
1.047313e-01
1.321054e-01
1.494065e-01
4.788327e-01
1.726832e-01
1.972655e-01
1.609383e-01
1.757621e-01
1.887162e-01
2.216910e-01
2.590073e-01
2.373465e-01
2.501644e-01
2.749753e-01
3.097456e-01
2.827616e-01
4.689927e-01
4.532840e-01
2.988824e-01
3.300036e-01
3.244925e-01
3.513169e-01
3.536498e-01
3.651516e-01
2.004514e-01
2.485816e-01
2.267965e-01
1.963241e-01
8.094335e-02
6.279785e-02
5.421796e-02
5.798025e-02
5.891649e-02
8.414308e-02
1.090069e-01
6.030461e-02
8.618671e-02
1.118662e-01
1.371457e-01
4.748064e-02
6.473467e-02
8.831810e-02
1.146977e-01
4.740438e-01
1.403741e-01
1.653329e-01
1.682837e-01
1.932201e-01
1.729702e-01
1.941088e-01
2.201281e-01
5.882654e-02
8.697970e-02
1.153808e-01
1.454468e-01
1.137341e-01
1.163764e-01
1.327847e-01
1.532528e-01
1.910784e-01
2.133040e-01
2.273135e-01
2.460264e-01
5.713509e-02
8.285846e-02
1.111036e-01
1.433641e-01
1.695710e-01
1.905689e-01
2.145096e-01
1.853699e-01
2.067425e-01
2.163743e-01
2.353308e-01
2.544125e-01
2.770256e-01
1.368863e-01
1.592534e-01
1.845657e-01
2.356983e-01
4.656377e-01
4.494637e-01
4.353839e-01
4.187614e-01
2.578517e-01
2.795941e-01
3.036507e-01
1.373624e-01
2.093096e-01
2.333015e-01
2.588951e-01
2.804502e-01
3.030572e-01
3.278948e-01
1.594147e-01
1.846773e-01
2.151480e-01
2.329936e-01
2.571927e-01
2.855610e-01
4.567429e-01
4.377053e-01
4.204333e-01
4.028919e-01
3.820017e-01
3.020023e-01
3.245280e-01
3.501939e-01
2.491941e-01
2.780588e-01
3.162960e-01
3.431593e-01
3.705820e-01
1.560235e-01
1.804159e-01
2.078906e-01
2.383921e-01
3.062921e-01
3.345726e-01
3.619254e-01
3.896773e-01
2.700173e-01
2.995156e-01
3.267046e-01
3.541013e-01
3.805121e-01
4.076523e-01
3.851098e-01
4.060228e-01
1.724725e-01
2.004012e-01
2.295222e-01
2.607113e-01
2.936632e-01
3.235909e-01
3.466874e-01
3.749228e-01
3.986939e-01
4.253244e-01
3.040027e-01
3.210536e-01
4.470162e-01
4.269507e-01
4.083305e-01
3.902521e-01
3.712091e-01
3.510124e-01
3.305680e-01
3.405127e-01
3.603044e-01
3.788025e-01
3.965790e-01
4.161806e-01
4.364781e-01
3.280000e-02
4.995548e-01
4.973668e-01
4.935799e-01
4.882749e-01
4.800953e-01
4.706380e-01
4.590326e-01
4.452133e-01
4.279100e-01
4.084941e-01
3.900783e-01
3.692745e-01
3.451328e-01
3.198104e-01
2.977445e-01
2.780934e-01
2.574266e-01
2.321930e-01
2.043452e-01
1.762476e-01
1.483658e-01
1.208794e-01
9.447534e-02
7.003221e-02
4.898715e-02
5.000000e-01
1.994253e-01
2.242940e-01
2.574660e-01
2.928508e-01
3.250943e-01
3.560861e-01
3.857163e-01
4.179668e-01
4.517693e-01
4.796479e-01
1.828000e-01
4.350452e-02
5.412605e-02
6.628859e-02
7.908937e-02
9.032200e-02
1.004815e-01
1.103379e-01
1.196356e-01
1.278506e-01
1.345842e-01
1.420420e-01
1.488155e-01
1.546039e-01
1.596017e-01
1.644386e-01
1.697311e-01
1.739586e-01
1.767383e-01
1.790606e-01
1.810681e-01
1.823846e-01
3.280000e-02
3.280000e-02
3.280000e-02
3.280000e-02
3.280000e-02
3.280000e-02
3.280000e-02
3.280000e-02
3.280000e-02
3.280000e-02
3.280000e-02
2.629645e-01
3.203726e-01
8.591369e-02
1.199336e-01
1.158865e-01
2.072401e-01
2.225770e-01
2.382309e-01
2.453831e-01
2.750384e-01
2.776082e-01
2.895864e-01
2.723535e-01
3.776751e-01
5.448960e-02
3.451161e-01
3.167886e-01
3.573107e-01
2.941247e-01
3.430378e-01
3.222645e-01
3.693716e-01
3.508199e-01
5.875109e-02
1.019537e-01
8.630346e-02
7.861493e-02
6.191845e-02
1.048341e-01
1.438189e-01
1.107867e-01
1.531099e-01
1.413665e-01
1.782582e-01
1.635815e-01
1.992044e-01
2.238356e-01
5.780683e-02
2.017567e-01
5.529342e-02
6.447730e-02
7.995535e-02
1.915761e-01
2.158796e-01
2.392708e-01
4.699003e-01
4.380616e-01
4.557065e-01
4.693008e-01
3.929764e-01
4.084693e-01
4.237723e-01
4.394070e-01
1.035292e-01
8.676818e-02
5.951851e-02
4.581010e-01
3.921868e-01
4.071822e-01
4.232307e-01
4.492365e-01
3.710711e-01
3.783282e-01
4.226382e-01
4.373128e-01
2.023221e-01
2.178993e-01
2.393955e-01
3.592790e-01
3.812012e-01
4.149188e-01
3.086299e-01
3.453087e-01
3.592955e-01
3.750197e-01
3.883958e-01
3.974829e-01
4.051783e-01
1.787208e-01
2.640378e-01
2.969919e-01
3.338190e-01
3.526941e-01
3.766028e-01
4.028309e-01
1.901807e-01
2.074392e-01
2.290333e-01
3.219346e-01
3.446274e-01
1.296033e-01
1.126308e-01
3.659947e-01
3.879344e-01
1.633087e-01
2.547075e-01
2.858860e-01
3.175523e-01
3.334818e-01
3.520609e-01
3.710761e-01
1.760868e-01
1.941599e-01
2.156801e-01
3.016602e-01
3.194129e-01
3.357446e-01
3.525112e-01
2.390968e-01
1.554075e-01
1.348083e-01
1.113158e-01
8.559186e-02
5.828528e-02
2.638744e-01
2.915700e-01
3.031386e-01
3.174899e-01
3.320342e-01
1.446265e-01
1.592681e-01
1.796113e-01
1.997130e-01
2.710047e-01
2.843422e-01
2.980324e-01
3.102597e-01
2.185856e-01
2.361050e-01
2.510775e-01
2.663285e-01
2.784655e-01
2.877888e-01
5.941180e-02
8.719358e-02
1.245084e-01
1.533505e-01
1.809832e-01
2.084172e-01
2.333065e-01
1.242480e-01
1.397999e-01
1.681027e-01
1.794827e-01
1.969854e-01
2.157616e-01
2.341265e-01
2.515513e-01
2.565306e-01
2.631766e-01
1.819175e-01
1.601669e-01
1.380920e-01
1.144920e-01
8.790174e-02
5.979162e-02
1.895806e-01
2.103481e-01
2.344063e-01
1.446555e-01
1.653352e-01
1.858238e-01
2.084440e-01
5.000000e-01
5.000000e-01
5.000000e-01
5.000000e-01
5.000000e-01
5.000000e-01
5.000000e-01
5.000000e-01
5.000000e-01
5.000000e-01
5.000000e-01
5.000000e-01
5.000000e-01
5.000000e-01
5.000000e-01
5.000000e-01
5.000000e-01
5.000000e-01
5.000000e-01
5.000000e-01
5.000000e-01
5.000000e-01
5.000000e-01
5.000000e-01
5.000000e-01
5.000000e-01
5.000000e-01
5.000000e-01
5.000000e-01
5.000000e-01
5.000000e-01
5.000000e-01
5.000000e-01
3.280000e-02
3.280000e-02
3.280000e-02
3.280000e-02
3.280000e-02
3.280000e-02
3.280000e-02
3.280000e-02
3.280000e-02
3.280000e-02
3.280000e-02
3.280000e-02
3.280000e-02
3.280000e-02
3.280000e-02
3.280000e-02
3.280000e-02
3.280000e-02
3.280000e-02
3.280000e-02
3.280000e-02
3.280000e-02
3.280000e-02
3.280000e-02
3.280000e-02
3.280000e-02
3.280000e-02
3.280000e-02
3.280000e-02
3.280000e-02
3.280000e-02
3.280000e-02
3.280000e-02
3.435154e-01
3.588972e-01
3.512381e-01
3.657226e-01
3.804007e-01
3.792916e-01
3.524665e-01
3.649565e-01
2.905780e-01
3.056715e-01
3.168273e-01
3.191400e-01
3.293311e-01
3.369950e-01
3.483626e-01
3.800397e-01
3.580074e-01
3.453691e-01
3.671534e-01
3.880476e-01
3.331076e-01
3.340124e-01
6.552433e-02
5.274959e-02
3.531701e-01
3.743983e-01
3.949614e-01
3.713610e-01
3.856579e-01
3.996303e-01
3.906354e-01
4.034768e-01
4.077724e-01
4.338192e-01
3.583871e-01
3.754790e-01
3.502001e-01
3.847714e-01
3.627263e-01
3.400967e-01
3.930610e-01
3.714340e-01
3.519689e-01
3.321360e-01
3.922307e-01
4.081147e-01
4.035593e-01
3.875292e-01
3.748972e-01
9.280917e-02
7.630590e-02
5.783469e-02
3.247125e-01
3.403590e-01
3.533479e-01
3.148336e-01
3.294758e-01
3.044755e-01
5.602110e-02
7.492632e-02
8.051691e-02
9.999121e-02
1.069477e-01
1.229744e-01
1.285453e-01
1.348909e-01
1.352586e-01
1.476838e-01
1.561044e-01
1.630007e-01
1.633527e-01
1.749101e-01
1.837514e-01
1.908092e-01
1.806183e-01
1.924025e-01
2.026613e-01
2.111307e-01
2.179999e-01
1.986336e-01
2.097849e-01
2.204521e-01
2.298732e-01
2.377998e-01
2.442980e-01
2.145507e-01
1.196204e-01
1.030418e-01
8.552083e-02
6.757912e-02
5.388895e-02
2.263208e-01
2.373898e-01
2.474400e-01
2.561879e-01
2.634684e-01
2.694663e-01
2.410108e-01
2.531926e-01
2.639634e-01
2.734112e-01
2.815165e-01
2.878787e-01
2.932401e-01
2.553557e-01
2.678619e-01
2.795429e-01
2.895831e-01
2.983419e-01
3.060783e-01
3.104696e-01
3.153095e-01
2.682007e-01
2.811787e-01
2.937845e-01
3.054701e-01
3.137417e-01
3.221684e-01
3.318639e-01
3.291051e-01
3.364872e-01
3.464071e-01
4.025812e-01
3.206972e-01
3.406201e-01
3.630959e-01
1.466204e-01
1.305000e-01
1.133007e-01
9.587361e-02
7.958053e-02
6.523392e-02
3.857214e-01
3.075424e-01
3.301733e-01
3.540488e-01
3.771144e-01
3.960791e-01
4.122359e-01
3.570526e-01
3.710033e-01
3.768069e-01
3.854672e-01
3.923967e-01
4.001634e-01
4.078385e-01
4.152509e-01
4.157430e-01
4.191325e-01
4.227289e-01
4.268957e-01
4.298094e-01
4.329276e-01
3.995218e-01
4.104250e-01
4.185746e-01
4.261015e-01
4.333681e-01
4.390571e-01
4.423796e-01
4.145039e-01
4.198093e-01
4.274271e-01
4.358394e-01
4.423004e-01
4.470906e-01
4.508909e-01
4.304885e-01
4.451646e-01
4.433063e-01
4.528913e-01
4.553164e-01
4.587045e-01
4.631341e-01
4.660202e-01
4.431145e-01
4.587915e-01
4.670522e-01
4.722467e-01
4.552704e-01
4.680843e-01
4.732859e-01
4.775332e-01
4.742923e-01
4.828854e-01
1.744607e-01
1.581981e-01
1.411955e-01
1.237313e-01
1.063836e-01
8.940521e-02
7.071078e-02
5.487035e-02
4.803510e-01
4.876820e-01
4.826478e-01
4.887008e-01
4.946177e-01
4.974618e-01
4.942064e-01
4.899462e-01
4.893832e-01
4.849043e-01
4.827700e-01
4.836630e-01
4.746331e-01
4.756377e-01
4.771068e-01
4.789530e-01
4.651938e-01
4.659352e-01
4.675376e-01
4.696782e-01
4.721283e-01
4.545194e-01
4.561743e-01
4.585999e-01
4.614689e-01
4.645200e-01
4.526219e-01
4.562252e-01
4.410659e-01
4.429617e-01
4.456648e-01
4.490016e-01
4.259297e-01
4.278880e-01
4.307822e-01
4.346081e-01
4.389851e-01
4.433166e-01
4.472815e-01
4.099711e-01
4.111954e-01
4.138760e-01
4.180643e-01
4.233348e-01
4.290157e-01
4.336480e-01
4.374618e-01
3.745655e-01
3.752830e-01
3.933221e-01
3.949896e-01
3.989690e-01
4.053151e-01
4.124075e-01
4.202464e-01
4.219682e-01
4.269330e-01
3.765019e-01
3.924432e-01
3.644788e-01
1.089434e-01
1.449068e-01
1.234981e-01
1.506203e-01
1.394193e-01
1.778893e-01
1.686601e-01
1.574609e-01
2.131146e-01
1.982322e-01
2.025716e-01
1.859968e-01
1.690259e-01
1.516432e-01
1.340183e-01
1.162909e-01
9.840197e-02
8.110378e-02
6.577340e-02
1.866961e-01
1.756414e-01
2.429067e-01
2.287699e-01
2.158925e-01
2.044539e-01
1.936919e-01
2.583214e-01
2.448784e-01
2.329204e-01
2.219494e-01
2.115282e-01
2.869288e-01
2.730167e-01
2.607664e-01
2.496456e-01
2.391984e-01
2.290882e-01
3.137190e-01
3.000016e-01
2.876427e-01
2.765212e-01
2.661821e-01
2.561974e-01
2.462913e-01
3.378231e-01
3.258304e-01
3.133192e-01
3.023034e-01
2.922372e-01
2.825999e-01
2.728988e-01
2.629941e-01
3.575164e-01
3.525344e-01
3.375232e-01
3.267869e-01
3.170271e-01
3.081028e-01
2.989508e-01
2.891136e-01
2.789581e-01
4.177766e-01
4.035001e-01
3.858751e-01
3.659692e-01
3.431411e-01
3.187094e-01
2.938703e-01
3.984478e-01
3.798783e-01
3.584696e-01
3.318304e-01
3.072876e-01
5.427937e-02
5.515239e-02
5.886280e-02
7.864349e-02
7.503781e-02
8.814734e-02
1.048250e-01
5.722092e-02
7.865655e-02
9.748856e-02
1.145651e-01
1.318736e-01
6.074285e-02
8.347149e-02
1.041710e-01
1.233734e-01
1.417910e-01
1.596205e-01
2.305397e-01
2.135935e-01
1.966105e-01
1.793773e-01
1.618403e-01
1.439987e-01
1.259392e-01
1.078843e-01
9.007541e-02
7.082935e-02
5.386928e-02
5.336086e-02
6.874104e-02
8.973326e-02
1.108836e-01
1.311982e-01
1.507403e-01
1.696674e-01
1.877964e-01
5.126393e-02
5.805594e-02
7.791989e-02
9.740384e-02
1.180569e-01
1.386793e-01
1.588647e-01
1.785975e-01
1.978455e-01
2.163939e-01
6.542905e-02
8.499015e-02
1.052074e-01
1.255747e-01
1.459886e-01
1.663472e-01
1.865306e-01
2.063821e-01
2.260226e-01
2.467180e-01
2.686475e-01
5.364666e-02
7.294594e-02
9.176998e-02
1.123963e-01
1.331907e-01
1.532140e-01
1.731689e-01
1.935595e-01
2.137487e-01
2.334559e-01
2.529131e-01
2.720636e-01
2.877701e-01
5.533073e-02
7.717509e-02
9.723107e-02
1.183325e-01
1.407093e-01
1.609679e-01
1.793654e-01
1.993572e-01
2.202633e-01
2.400416e-01
2.593645e-01
2.779975e-01
2.954885e-01
3.090318e-01
4.478089e-02
5.772575e-02
7.849444e-02
1.042852e-01
1.206107e-01
1.472439e-01
1.698018e-01
1.878228e-01
2.018925e-01
2.260843e-01
2.459719e-01
2.651496e-01
2.841632e-01
3.012671e-01
3.210451e-01
3.293561e-01
2.580469e-01
2.406198e-01
2.236548e-01
2.066989e-01
1.894557e-01
1.718033e-01
1.537989e-01
1.355460e-01
1.171381e-01
9.845846e-02
7.975370e-02
6.021558e-02
4.989287e-01
4.996307e-01
4.964511e-01
4.983115e-01
4.995432e-01
4.927049e-01
4.957772e-01
4.980271e-01
4.994810e-01
4.831540e-01
4.880356e-01
4.920989e-01
4.953724e-01
4.978498e-01
4.994376e-01
4.655969e-01
4.757381e-01
4.822833e-01
4.873569e-01
4.915963e-01
4.950655e-01
4.977026e-01
4.993956e-01
4.697503e-01
4.758785e-01
4.816212e-01
4.867321e-01
4.911313e-01
4.947591e-01
4.975293e-01
4.993338e-01
4.546417e-01
4.616335e-01
4.683416e-01
4.748497e-01
4.807804e-01
4.860519e-01
4.906005e-01
4.943540e-01
4.972357e-01
4.991743e-01
4.996582e-01
4.423274e-01
4.516334e-01
4.595756e-01
4.669289e-01
4.736972e-01
4.798117e-01
4.852281e-01
4.898839e-01
4.936979e-01
4.965639e-01
4.983374e-01
4.995391e-01
4.173920e-01
4.296171e-01
4.403579e-01
4.495339e-01
4.578174e-01
4.654274e-01
4.723703e-01
4.786223e-01
4.841390e-01
4.888556e-01
4.927096e-01
4.956703e-01
4.979205e-01
4.994390e-01
3.839826e-01
4.017618e-01
4.163111e-01
4.281665e-01
4.382956e-01
4.474713e-01
2.849101e-01
2.666888e-01
2.497372e-01
2.333183e-01
2.166019e-01
1.993690e-01
1.816529e-01
1.635516e-01
1.451609e-01
1.265256e-01
1.078043e-01
8.928401e-02
7.219023e-02
4.559216e-01
4.636754e-01
4.707334e-01
4.770789e-01
4.826533e-01
4.874307e-01
4.914553e-01
4.948016e-01
4.975209e-01
4.993330e-01
5.770816e-02
8.406248e-02
1.117105e-01
1.401145e-01
1.685123e-01
1.963941e-01
2.234785e-01
2.495710e-01
2.745195e-01
2.982231e-01
3.207847e-01
3.424271e-01
3.631530e-01
3.832468e-01
4.019573e-01
4.188062e-01
4.339807e-01
4.481594e-01
4.621082e-01
4.707864e-01
4.791377e-01
4.876900e-01
4.932176e-01
4.974083e-01
3.690685e-01
3.889470e-01
4.024481e-01
4.153116e-01
4.259018e-01
4.358280e-01
4.451200e-01
4.536820e-01
4.614991e-01
4.686391e-01
4.750372e-01
4.805954e-01
4.854925e-01
4.898810e-01
4.935654e-01
4.972721e-01
4.989587e-01
5.928583e-02
8.681486e-02
1.152861e-01
1.441611e-01
1.727871e-01
2.007328e-01
2.277827e-01
2.538106e-01
2.787427e-01
3.025669e-01
3.253357e-01
3.470844e-01
3.677951e-01
3.873688e-01
4.055363e-01
4.222127e-01
4.374370e-01
4.512678e-01
4.631743e-01
4.732393e-01
4.819470e-01
4.891907e-01
4.946954e-01
4.984678e-01
6.047947e-02
8.889859e-02
1.180088e-01
1.472748e-01
1.760881e-01
2.041017e-01
2.311621e-01
2.571962e-01
2.821719e-01
3.060823e-01
3.289251e-01
3.506721e-01
3.712547e-01
3.905698e-01
4.085027e-01
4.249959e-01
4.399938e-01
4.533922e-01
4.650764e-01
4.751378e-01
4.836126e-01
4.904499e-01
4.955748e-01
4.988441e-01
6.141188e-02
9.056050e-02
1.202244e-01
1.498213e-01
1.787952e-01
2.068680e-01
2.339452e-01
2.599938e-01
2.849995e-01
3.112632e-01
2.916232e-01
2.741091e-01
2.588943e-01
2.430608e-01
2.264719e-01
2.092379e-01
1.914959e-01
1.733709e-01
1.549588e-01
1.363458e-01
1.176808e-01
9.906891e-02
7.878382e-02
5.959388e-02
3.089496e-01
3.318137e-01
3.535281e-01
3.740119e-01
3.931735e-01
4.109385e-01
4.272370e-01
4.419997e-01
4.551548e-01
4.666678e-01
4.765459e-01
4.847652e-01
4.912952e-01
4.960729e-01
4.990087e-01
6.219806e-02
9.213611e-02
1.223749e-01
1.522879e-01
1.813876e-01
2.094914e-01
2.365593e-01
2.625885e-01
2.875843e-01
3.115416e-01
3.344072e-01
3.560923e-01
3.764927e-01
3.955269e-01
4.131256e-01
4.292258e-01
4.437671e-01
4.567078e-01
4.680184e-01
4.776680e-01
4.856346e-01
4.918867e-01
4.963909e-01
4.991001e-01
6.320890e-02
9.417777e-02
1.250557e-01
1.552280e-01
1.843977e-01
2.124886e-01
2.394863e-01
2.654234e-01
2.903546e-01
3.143078e-01
3.371861e-01
3.588405e-01
3.791531e-01
3.980283e-01
4.154268e-01
4.312823e-01
4.455750e-01
4.582709e-01
4.693306e-01
4.787083e-01
4.863961e-01
4.923891e-01
4.966488e-01
4.991741e-01
6.519020e-02
9.747803e-02
1.289009e-01
1.591471e-01
1.883287e-01
2.163836e-01
2.431841e-01
2.688598e-01
2.936763e-01
3.177098e-01
3.406326e-01
3.622439e-01
3.824405e-01
4.010828e-01
4.181756e-01
4.336730e-01
4.476795e-01
4.600849e-01
4.708103e-01
4.798093e-01
4.871841e-01
4.929178e-01
4.969377e-01
4.992595e-01
6.895272e-02
1.030026e-01
1.343224e-01
1.642380e-01
1.936553e-01
2.217679e-01
2.479642e-01
2.728427e-01
2.977823e-01
3.222736e-01
3.451798e-01
3.666398e-01
3.868078e-01
4.050772e-01
4.215489e-01
4.364328e-01
4.503564e-01
4.624253e-01
4.725672e-01
4.809706e-01
4.880429e-01
4.935868e-01
3.369451e-01
3.171641e-01
2.949172e-01
2.831461e-01
2.687280e-01
2.529906e-01
2.363762e-01
2.191291e-01
2.014225e-01
1.833777e-01
1.650849e-01
1.466327e-01
1.281455e-01
1.098981e-01
9.206020e-02
7.367588e-02
4.973387e-01
4.993820e-01
7.717763e-02
1.125645e-01
1.399155e-01
1.704146e-01
2.011949e-01
2.296685e-01
2.537632e-01
2.742724e-01
3.038082e-01
3.287546e-01
3.509813e-01
3.718756e-01
3.932514e-01
4.108508e-01
4.244782e-01
4.392764e-01
4.544278e-01
4.658946e-01
4.740084e-01
4.819988e-01
4.889329e-01
4.945927e-01
4.980158e-01
4.994943e-01
4.994620e-01
4.991676e-01
4.976251e-01
4.994960e-01
4.985377e-01
4.966829e-01
4.942868e-01
4.991784e-01
4.976196e-01
4.954644e-01
4.926378e-01
4.893352e-01
4.984813e-01
4.966090e-01
4.940263e-01
4.907804e-01
4.869475e-01
4.826645e-01
4.992581e-01
4.971188e-01
4.952739e-01
4.924097e-01
4.887503e-01
4.844185e-01
4.795320e-01
4.741848e-01
4.640307e-01
4.989645e-01
4.967968e-01
4.939309e-01
4.906625e-01
4.865929e-01
4.817779e-01
4.763302e-01
4.703798e-01
4.526209e-01
4.994587e-01
4.983747e-01
4.960359e-01
4.927974e-01
4.889046e-01
4.843568e-01
4.790589e-01
4.730642e-01
4.665109e-01
4.596039e-01
4.401013e-01
4.991448e-01
4.974534e-01
4.949572e-01
4.914541e-01
4.871260e-01
4.820721e-01
4.762830e-01
4.697603e-01
4.625909e-01
4.549891e-01
4.473265e-01
4.985374e-01
4.965357e-01
4.936685e-01
4.898904e-01
4.852083e-01
4.797153e-01
4.734549e-01
4.664353e-01
4.586917e-01
4.503291e-01
4.417131e-01
4.334733e-01
4.257518e-01
4.089408e-01
4.993542e-01
4.973680e-01
4.954137e-01
4.922974e-01
4.881866e-01
4.831492e-01
4.772522e-01
4.705583e-01
4.630901e-01
4.548536e-01
4.458754e-01
4.360630e-01
4.264518e-01
4.181907e-01
3.448602e-01
3.607707e-01
4.991313e-01
4.973533e-01
4.944798e-01
4.909666e-01
4.864687e-01
4.810215e-01
4.746984e-01
4.675760e-01
4.597030e-01
4.510589e-01
4.416372e-01
4.315337e-01
4.179989e-01
4.097593e-01
4.030558e-01
3.854683e-01
3.280000e-02
3.280000e-02
3.280000e-02
3.280000e-02
3.280000e-02
3.280000e-02
3.280000e-02
3.280000e-02
3.280000e-02
3.280000e-02
3.280000e-02
3.280000e-02
3.280000e-02
3.280000e-02
3.280000e-02
3.280000e-02
3.280000e-02
3.280000e-02
3.280000e-02
3.280000e-02
3.280000e-02
3.280000e-02
3.280000e-02
3.280000e-02
3.280000e-02
3.280000e-02
3.280000e-02
3.280000e-02
3.280000e-02
3.280000e-02
3.280000e-02
3.280000e-02
3.280000e-02
3.280000e-02
3.280000e-02
3.280000e-02
3.280000e-02
3.280000e-02
3.280000e-02
3.280000e-02
3.280000e-02
3.280000e-02
3.280000e-02
3.280000e-02
3.280000e-02
3.280000e-02
3.280000e-02
3.280000e-02
3.280000e-02
3.280000e-02
3.280000e-02
3.280000e-02
3.280000e-02
3.280000e-02
3.280000e-02
3.280000e-02
3.280000e-02
3.280000e-02
3.280000e-02
3.280000e-02
3.280000e-02
3.280000e-02
3.280000e-02
3.280000e-02
3.280000e-02
3.280000e-02
3.280000e-02
3.280000e-02
3.280000e-02
3.280000e-02
3.280000e-02
3.280000e-02
3.280000e-02
3.280000e-02
3.280000e-02
3.280000e-02
3.280000e-02
3.280000e-02
3.280000e-02
3.280000e-02
3.280000e-02
3.280000e-02
3.280000e-02
3.280000e-02
3.280000e-02
3.280000e-02
3.280000e-02
3.280000e-02
3.280000e-02
3.280000e-02
3.280000e-02
3.280000e-02
3.280000e-02
3.280000e-02
3.280000e-02
3.280000e-02
3.280000e-02
3.280000e-02
3.280000e-02
3.280000e-02
3.280000e-02
3.280000e-02
3.280000e-02
3.280000e-02
3.280000e-02
3.280000e-02
3.280000e-02
3.280000e-02
3.280000e-02
3.280000e-02
3.280000e-02
3.280000e-02
3.280000e-02
3.280000e-02
3.280000e-02
3.280000e-02
3.280000e-02
3.280000e-02
3.280000e-02
3.280000e-02
3.280000e-02
3.280000e-02
3.280000e-02
3.280000e-02
3.280000e-02
3.280000e-02
3.280000e-02
3.280000e-02
3.280000e-02
3.280000e-02
3.280000e-02
3.280000e-02
3.280000e-02
3.280000e-02
3.280000e-02
3.280000e-02
3.280000e-02
3.280000e-02
3.280000e-02
3.280000e-02
3.280000e-02
3.280000e-02
3.280000e-02
3.280000e-02
3.280000e-02
3.280000e-02
3.280000e-02
3.280000e-02
3.280000e-02
3.280000e-02
3.280000e-02
3.280000e-02
3.280000e-02
3.280000e-02
3.280000e-02
3.280000e-02
3.280000e-02
3.280000e-02
3.280000e-02
3.280000e-02
3.280000e-02
3.280000e-02
3.280000e-02
3.280000e-02
3.280000e-02
3.280000e-02
3.280000e-02
3.280000e-02
3.280000e-02
3.280000e-02
3.280000e-02
3.280000e-02
3.280000e-02
3.280000e-02
3.280000e-02
3.280000e-02
3.280000e-02
3.280000e-02
3.280000e-02
3.280000e-02
3.280000e-02
3.280000e-02
3.280000e-02
3.280000e-02
3.280000e-02
3.280000e-02
3.280000e-02
3.280000e-02
3.280000e-02
3.280000e-02
3.280000e-02
3.280000e-02
3.280000e-02
3.280000e-02
3.280000e-02
3.280000e-02
3.280000e-02
3.280000e-02
3.280000e-02
3.280000e-02
3.280000e-02
3.280000e-02
3.280000e-02
3.280000e-02
3.280000e-02
3.280000e-02
3.280000e-02
3.280000e-02
3.280000e-02
3.280000e-02
3.280000e-02
3.280000e-02
3.280000e-02
3.280000e-02
3.280000e-02
3.280000e-02
3.280000e-02
3.280000e-02
3.280000e-02
3.280000e-02
3.280000e-02
3.280000e-02
3.280000e-02
3.280000e-02
3.280000e-02
3.280000e-02
3.280000e-02
3.280000e-02
3.280000e-02
3.280000e-02
3.280000e-02
3.280000e-02
3.280000e-02
3.280000e-02
3.280000e-02
3.280000e-02
3.280000e-02
3.280000e-02
3.280000e-02
3.280000e-02
3.280000e-02
3.280000e-02
3.280000e-02
3.280000e-02
3.280000e-02
3.280000e-02
3.280000e-02
3.280000e-02
3.280000e-02
3.280000e-02
3.280000e-02
3.280000e-02
3.280000e-02
3.280000e-02
3.280000e-02
3.280000e-02
3.280000e-02
3.280000e-02
3.280000e-02
3.280000e-02
3.280000e-02
3.280000e-02
3.280000e-02
3.280000e-02
3.280000e-02
3.280000e-02
3.280000e-02
3.280000e-02
3.280000e-02
3.280000e-02
3.280000e-02
3.280000e-02
3.280000e-02
3.280000e-02
3.280000e-02
3.280000e-02
3.280000e-02
3.280000e-02
3.280000e-02
3.280000e-02
3.280000e-02
3.280000e-02
3.280000e-02
3.280000e-02
3.280000e-02
3.280000e-02
3.280000e-02
3.280000e-02
3.280000e-02
3.280000e-02
3.280000e-02
3.280000e-02
3.280000e-02
3.280000e-02
3.280000e-02
3.280000e-02
3.280000e-02
3.280000e-02
3.280000e-02
3.280000e-02
3.280000e-02
3.280000e-02
3.280000e-02
3.280000e-02
3.280000e-02
3.280000e-02
3.280000e-02
3.280000e-02
3.280000e-02
3.280000e-02
3.280000e-02
3.280000e-02
3.280000e-02
3.280000e-02
3.280000e-02
3.280000e-02
3.280000e-02
3.280000e-02
3.280000e-02
3.280000e-02
3.280000e-02
3.280000e-02
3.280000e-02
3.280000e-02
3.280000e-02
3.280000e-02
3.280000e-02
3.280000e-02
3.280000e-02
3.280000e-02
3.280000e-02
3.280000e-02
3.280000e-02
3.280000e-02
3.280000e-02
3.280000e-02
3.280000e-02
3.280000e-02
3.280000e-02
3.280000e-02
3.280000e-02
3.280000e-02
3.280000e-02
3.280000e-02
3.280000e-02
3.280000e-02
3.280000e-02
3.280000e-02
3.280000e-02
3.280000e-02
3.280000e-02
3.280000e-02
3.280000e-02
3.280000e-02
3.280000e-02
3.280000e-02
3.280000e-02
3.280000e-02
3.280000e-02
3.280000e-02
3.280000e-02
3.280000e-02
3.280000e-02
3.280000e-02
3.280000e-02
3.280000e-02
3.280000e-02
3.280000e-02
3.280000e-02
3.280000e-02
1.828000e-01
1.828000e-01
1.828000e-01
1.828000e-01
1.828000e-01
1.828000e-01
1.828000e-01
1.828000e-01
1.828000e-01
1.828000e-01
1.828000e-01
1.828000e-01
1.828000e-01
1.828000e-01
1.828000e-01
1.828000e-01
1.828000e-01
1.828000e-01
1.828000e-01
1.828000e-01
1.828000e-01
1.828000e-01
1.828000e-01
1.828000e-01
1.828000e-01
1.828000e-01
1.828000e-01
1.828000e-01
1.828000e-01
1.828000e-01
1.828000e-01
1.828000e-01
1.828000e-01
1.418126e-01
1.359467e-01
1.511446e-01
1.397682e-01
1.449024e-01
1.327683e-01
1.313536e-01
1.261127e-01
1.214621e-01
1.460395e-01
1.407910e-01
1.355140e-01
1.454763e-01
1.343585e-01
1.430501e-01
5.339504e-02
1.812035e-01
1.787589e-01
1.739138e-01
1.759412e-01
1.742272e-01
1.694447e-01
1.742402e-01
1.710877e-01
1.680612e-01
1.683103e-01
1.646061e-01
1.607438e-01
1.647103e-01
1.606191e-01
1.568628e-01
1.521914e-01
1.803117e-01
1.601628e-01
1.557832e-01
1.513080e-01
1.485830e-01
1.423717e-01
1.374196e-01
1.421628e-01
1.311556e-01
1.555843e-01
1.468476e-01
1.821925e-01
1.363549e-01
1.234207e-01
1.316896e-01
1.262290e-01
1.198102e-01
1.142857e-01
1.113585e-01
1.186110e-01
1.117004e-01
1.061079e-01
1.016489e-01
1.094166e-01
1.012355e-01
9.663631e-02
9.184727e-02
8.974537e-02
8.587659e-02
8.154531e-02
7.431428e-02
7.070760e-02
5.836116e-02
1.022558e-01
8.566633e-02
7.138334e-02
5.955559e-02
4.631226e-02
1.740824e-01
1.695459e-01
1.822321e-01
1.802303e-01
1.815127e-01
1.770679e-01
1.788148e-01
1.749858e-01
1.699012e-01
1.775565e-01
1.802168e-01
1.820936e-01
7.848277e-02
6.455692e-02
4.789015e-02
7.761540e-02
6.029075e-02
4.338828e-02
1.740751e-01
1.695491e-01
1.822810e-01
1.803268e-01
1.815128e-01
1.771603e-01
1.788148e-01
1.749661e-01
1.698583e-01
7.780658e-02
6.425726e-02
4.807455e-02
7.823354e-02
6.070994e-02
4.350978e-02
1.822779e-01
1.803138e-01
1.814293e-01
1.771356e-01
1.785981e-01
1.747197e-01
1.698891e-01
7.899808e-02
6.491927e-02
4.805187e-02
1.820924e-01
1.794677e-01
1.762865e-01
1.742442e-01
1.709664e-01
1.698382e-01
1.631450e-01
7.775599e-02
6.154488e-02
4.432736e-02
1.045601e-01
9.041919e-02
7.491485e-02
5.664978e-02
4.296349e-02
1.745171e-01
1.701979e-01
1.822698e-01
1.803368e-01
1.814982e-01
1.773248e-01
1.787846e-01
1.748572e-01
1.699458e-01
8.003159e-02
6.578405e-02
4.888868e-02
7.758221e-02
6.083309e-02
1.689871e-01
1.731790e-01
1.766503e-01
1.795766e-01
4.370182e-02
1.823068e-01
1.803852e-01
1.775696e-01
8.070809e-02
6.666595e-02
4.844970e-02
1.736425e-01
1.689387e-01
1.821792e-01
1.801326e-01
1.813869e-01
1.767402e-01
1.784144e-01
1.718079e-01
1.740684e-01
1.656635e-01
1.685988e-01
1.018377e-01
8.845051e-02
7.400132e-02
6.010829e-02
4.554891e-02
7.534415e-02
5.861901e-02
4.283931e-02
1.822411e-01
1.801814e-01
1.813444e-01
1.768876e-01
1.783942e-01
1.745867e-01
1.697448e-01
1.609915e-01
7.743483e-02
6.459347e-02
4.773791e-02
1.824179e-01
1.802297e-01
1.767312e-01
1.743071e-01
1.712087e-01
1.698803e-01
1.632073e-01
7.831744e-02
6.122416e-02
4.421350e-02
1.046200e-01
9.050256e-02
7.508309e-02
5.677358e-02
4.302241e-02
1.740190e-01
1.694946e-01
1.822449e-01
1.803097e-01
1.814790e-01
1.773135e-01
1.787107e-01
1.746960e-01
1.696869e-01
7.992024e-02
6.576369e-02
4.890587e-02
7.664073e-02
6.026993e-02
4.346965e-02
1.743644e-01
1.698588e-01
1.822689e-01
1.534939e-01
1.802939e-01
1.815182e-01
1.771223e-01
1.788436e-01
1.750157e-01
1.699155e-01
7.849295e-02
6.441100e-02
4.774122e-02
7.616750e-02
5.989262e-02
4.329103e-02
1.822803e-01
1.803385e-01
1.813569e-01
1.772645e-01
1.783344e-01
1.740274e-01
1.691210e-01
7.748667e-02
6.442266e-02
4.755930e-02
1.822311e-01
1.805207e-01
1.779909e-01
1.738779e-01
1.734980e-01
1.694463e-01
1.655608e-01
7.701095e-02
6.015690e-02
4.350056e-02
1.091034e-01
9.497694e-02
7.601342e-02
6.054230e-02
4.646350e-02
1.822375e-01
1.802343e-01
1.813294e-01
1.666778e-01
1.714177e-01
1.753723e-01
1.784151e-01
1.803222e-01
1.821589e-01
1.770852e-01
1.783494e-01
1.743548e-01
1.696196e-01
7.710125e-02
6.361866e-02
4.772578e-02
1.823597e-01
1.798818e-01
1.753799e-01
1.710044e-01
1.651643e-01
7.736894e-02
6.051394e-02
4.345660e-02
4.786967e-02
1.786464e-01
1.767562e-01
1.734911e-01
1.728168e-01
1.679817e-01
1.665640e-01
1.680947e-01
1.617535e-01
1.536778e-01
1.570929e-01
1.606863e-01
1.626635e-01
1.459405e-01
1.510527e-01
1.551189e-01
1.545902e-01
1.307777e-01
1.198642e-01
1.109452e-01
1.017576e-01
9.152153e-02
7.941236e-02
6.688441e-02
5.823245e-02
4.739387e-02
6.532921e-02
7.159039e-02
8.262186e-02
8.333516e-02
1.004574e-01
9.667062e-02
9.392716e-02
1.114970e-01
1.075999e-01
1.045114e-01
1.139388e-01
1.251516e-01
1.208478e-01
1.170432e-01
1.370192e-01
1.335245e-01
1.289720e-01
1.254355e-01
1.229205e-01
1.493874e-01
1.317451e-01
1.400553e-01
1.443570e-01
1.815493e-01
4.620443e-02
1.816318e-01
1.814729e-01
1.800073e-01
1.780485e-01
1.822719e-01
1.731602e-01
1.708333e-01
1.675733e-01
1.537306e-01
1.589017e-01
1.644455e-01
1.697222e-01
1.739694e-01
1.773572e-01
1.800997e-01
1.818814e-01
1.822702e-01
1.810671e-01
1.786883e-01
1.756537e-01
1.558406e-01
1.820320e-01
1.803478e-01
1.777479e-01
1.742266e-01
1.701430e-01
1.657077e-01
1.611970e-01
1.824656e-01
1.815080e-01
1.791650e-01
1.771318e-01
1.724291e-01
1.680646e-01
1.636197e-01
1.596401e-01
1.524566e-01
1.467462e-01
5.169726e-02
4.238749e-02
7.650477e-02
6.731546e-02
5.537042e-02
4.578061e-02
8.029447e-02
6.518229e-02
1.143801e-01
1.081511e-01
9.806144e-02
8.417157e-02
7.222943e-02
6.143140e-02
5.113002e-02
4.320370e-02
9.905414e-02
8.806988e-02
1.718518e-01
1.654860e-01
1.585564e-01
1.499412e-01
1.398728e-01
1.283847e-01
1.157855e-01
1.821532e-01
1.804265e-01
1.771187e-01
1.715635e-01
1.643611e-01
1.557989e-01
1.463458e-01
1.360793e-01
1.254741e-01
1.154713e-01
1.030850e-01
9.228329e-02
7.908808e-02
6.283888e-02
4.881400e-02
1.268253e-01
1.196145e-01
1.102762e-01
9.869686e-02
8.757084e-02
7.696970e-02
6.659889e-02
5.685095e-02
4.681842e-02
4.292773e-02
1.607008e-01
1.534850e-01
1.442232e-01
1.329524e-01
6.931457e-02
6.240670e-02
4.850023e-02
1.185820e-01
1.053371e-01
9.114834e-02
7.515324e-02
5.925542e-02
4.634283e-02
1.718198e-01
1.653671e-01
1.582857e-01
1.493744e-01
1.392148e-01
1.279048e-01
1.154477e-01
1.017639e-01
8.899119e-02
7.425045e-02
1.821349e-01
1.805649e-01
1.773842e-01
1.722291e-01
1.643974e-01
1.546069e-01
1.445595e-01
1.336641e-01
1.221334e-01
1.106095e-01
1.820930e-01
1.797846e-01
1.762781e-01