VARIABLES = "X" "Y" "Z" "FREF"
ZONE T="instant 063"
STRANDID=0, SOLUTIONTIME=0
Nodes=3151, Elements=6298
ZONETYPE=FETriangle
DATAPACKING=BLOCK
VARLOCATION = ([1-3]=NODAL, [4]=CELLCENTERED)
5.000000e-01
2.054281e-01
2.261187e-01
2.434736e-01
2.586756e-01
2.760438e-01
2.940696e-01
3.126079e-01
3.320255e-01
3.519212e-01
3.711434e-01
3.885739e-01
4.047149e-01
4.198144e-01
4.336581e-01
4.458455e-01
4.561387e-01
4.639718e-01
4.711388e-01
4.786149e-01
4.851421e-01
4.903434e-01
4.941897e-01
4.970118e-01
4.988403e-01
4.997842e-01
1.888000e-01
1.888000e-01
1.888000e-01
1.888000e-01
1.888000e-01
1.888000e-01
1.888000e-01
1.888000e-01
1.888000e-01
1.888000e-01
1.888000e-01
1.888000e-01
3.380996e-01
3.365814e-01
3.329576e-01
3.271408e-01
3.201853e-01
3.152275e-01
3.089300e-01
3.008263e-01
2.928870e-01
2.852706e-01
2.769856e-01
2.673306e-01
2.593068e-01
2.516184e-01
2.441156e-01
2.347068e-01
2.253118e-01
2.182388e-01
2.094521e-01
1.994830e-01
3.388000e-01
4.858750e-01
4.699580e-01
4.554314e-01
4.408636e-01
4.248641e-01
4.083100e-01
3.929635e-01
3.782024e-01
3.633980e-01
3.502276e-01
3.777958e-01
2.323811e-01
2.213156e-01
3.903389e-01
3.697402e-01
2.371489e-01
2.475589e-01
2.283683e-01
2.502537e-01
2.089726e-01
2.514033e-01
2.379217e-01
2.560771e-01
2.677297e-01
4.870178e-01
2.815093e-01
2.972997e-01
2.744285e-01
2.850106e-01
3.281604e-01
3.401422e-01
3.753257e-01
3.553166e-01
3.571194e-01
3.852965e-01
3.958143e-01
3.755914e-01
4.810702e-01
4.721068e-01
3.870372e-01
4.039980e-01
3.967989e-01
4.143246e-01
4.082557e-01
4.189712e-01
3.493181e-01
3.724625e-01
3.608810e-01
3.426894e-01
2.289242e-01
2.145936e-01
2.037874e-01
2.069788e-01
2.066833e-01
2.240031e-01
2.408688e-01
2.075667e-01
2.247739e-01
2.417915e-01
2.589586e-01
1.990486e-01
2.108276e-01
2.262782e-01
2.431902e-01
4.839500e-01
2.600276e-01
2.768189e-01
2.779202e-01
2.948454e-01
2.805595e-01
2.950090e-01
3.125551e-01
2.061438e-01
2.251804e-01
2.436653e-01
2.628110e-01
2.547700e-01
2.549342e-01
2.648912e-01
2.739836e-01
2.934346e-01
3.083676e-01
3.184283e-01
3.309753e-01
2.060052e-01
2.232809e-01
2.417366e-01
2.623586e-01
2.781112e-01
2.920241e-01
3.083541e-01
2.942709e-01
3.058823e-01
3.106975e-01
3.236788e-01
3.373166e-01
3.531942e-01
2.701411e-01
2.838673e-01
2.978246e-01
3.237990e-01
4.788744e-01
4.695125e-01
4.628956e-01
4.547163e-01
3.390232e-01
3.543635e-01
3.709086e-01
2.755353e-01
3.110871e-01
3.252573e-01
3.403328e-01
3.546812e-01
3.702859e-01
3.870169e-01
2.898025e-01
3.044299e-01
3.195628e-01
3.274016e-01
3.423770e-01
3.589076e-01
4.733990e-01
4.629023e-01
4.538008e-01
4.459639e-01
4.371992e-01
3.691711e-01
3.846136e-01
4.016741e-01
3.397029e-01
3.574436e-01
3.790580e-01
3.970993e-01
4.151336e-01
2.941208e-01
3.086522e-01
3.238798e-01
3.401408e-01
3.750553e-01
3.926733e-01
4.102369e-01
4.278890e-01
3.566601e-01
3.731367e-01
3.894022e-01
4.061785e-01
4.226376e-01
4.396083e-01
4.284213e-01
4.395071e-01
3.106653e-01
3.254319e-01
3.409613e-01
3.571471e-01
3.733903e-01
3.888154e-01
4.024172e-01
4.195491e-01
4.339709e-01
4.505783e-01
3.987927e-01
4.057290e-01
4.667763e-01
4.559757e-01
4.465049e-01
4.375991e-01
4.295461e-01
4.217917e-01
4.121595e-01
4.128475e-01
4.210754e-01
4.300347e-01
4.380058e-01
4.479289e-01
4.591174e-01
1.888000e-01
4.996946e-01
4.978449e-01
4.947295e-01
4.905365e-01
4.837812e-01
4.759669e-01
4.659504e-01
4.535259e-01
4.382679e-01
4.225562e-01
4.082757e-01
3.929228e-01
3.769375e-01
3.600154e-01
3.452639e-01
3.328393e-01
3.203488e-01
3.064074e-01
2.914949e-01
2.763738e-01
2.612151e-01
2.459054e-01
2.306785e-01
2.155780e-01
2.012679e-01
5.000000e-01
3.500459e-01
3.633510e-01
3.779279e-01
3.938325e-01
4.090711e-01
4.238847e-01
4.396890e-01
4.567161e-01
4.729018e-01
4.876664e-01
3.388000e-01
1.986284e-01
2.083368e-01
2.199923e-01
2.336817e-01
2.444530e-01
2.546933e-01
2.646593e-01
2.743783e-01
2.826770e-01
2.888951e-01
2.969348e-01
3.042103e-01
3.099808e-01
3.146308e-01
3.190635e-01
3.250928e-01
3.295436e-01
3.320931e-01
3.344322e-01
3.366888e-01
3.383166e-01
1.888000e-01
1.888000e-01
1.888000e-01
1.888000e-01
1.888000e-01
1.888000e-01
1.888000e-01
1.888000e-01
1.888000e-01
1.888000e-01
1.888000e-01
3.786387e-01
4.056936e-01
2.239059e-01
2.534871e-01
2.443264e-01
3.484743e-01
3.545502e-01
3.674185e-01
3.664768e-01
3.842154e-01
3.847058e-01
3.921397e-01
3.748201e-01
4.259519e-01
2.031580e-01
4.140332e-01
3.953557e-01
4.166584e-01
3.827004e-01
4.074197e-01
3.958630e-01
4.224034e-01
4.108494e-01
2.065158e-01
2.543529e-01
2.266060e-01
2.186808e-01
2.070848e-01
2.484386e-01
2.734524e-01
2.391236e-01
2.725527e-01
2.582141e-01
2.818416e-01
2.690279e-01
2.916000e-01
3.030591e-01
2.133213e-01
3.510989e-01
2.051468e-01
2.157889e-01
2.328270e-01
3.426469e-01
3.562331e-01
3.670924e-01
4.835758e-01
4.669510e-01
4.760084e-01
4.802062e-01
4.431527e-01
4.511070e-01
4.579286e-01
4.639733e-01
2.334361e-01
2.216557e-01
2.052179e-01
4.725882e-01
4.404420e-01
4.468255e-01
4.532449e-01
4.666304e-01
4.306895e-01
4.339229e-01
4.515109e-01
4.585240e-01
3.421748e-01
3.492140e-01
3.586028e-01
4.141684e-01
4.270691e-01
4.436154e-01
4.008003e-01
4.171764e-01
4.228799e-01
4.301364e-01
4.348165e-01
4.375329e-01
4.412642e-01
3.288464e-01
3.663213e-01
3.802990e-01
3.984659e-01
4.079474e-01
4.196971e-01
4.300941e-01
3.332662e-01
3.387230e-01
3.476449e-01
3.877437e-01
3.991557e-01
2.486855e-01
2.373314e-01
4.082298e-01
4.162503e-01
3.150101e-01
3.550618e-01
3.645430e-01
3.805195e-01
3.881205e-01
3.953722e-01
4.020295e-01
3.201388e-01
3.245903e-01
3.326271e-01
3.673319e-01
3.756700e-01
3.816708e-01
3.874859e-01
3.376101e-01
2.630113e-01
2.499776e-01
2.355485e-01
2.203387e-01
2.040822e-01
3.433651e-01
3.573978e-01
3.622325e-01
3.671494e-01
3.723263e-01
2.973846e-01
3.028569e-01
3.072745e-01
3.152155e-01
3.425104e-01
3.472733e-01
3.523530e-01
3.569377e-01
3.183959e-01
3.222898e-01
3.267262e-01
3.330369e-01
3.382543e-01
3.412528e-01
2.064240e-01
2.240135e-01
2.450659e-01
2.614057e-01
2.766434e-01
2.922405e-01
3.075115e-01
2.762874e-01
2.799547e-01
2.934662e-01
2.967344e-01
2.988877e-01
3.053910e-01
3.127347e-01
3.217423e-01
3.225085e-01
3.241144e-01
2.777083e-01
2.643698e-01
2.510713e-01
2.373416e-01
2.220541e-01
2.057128e-01
2.811529e-01
2.936854e-01
3.073787e-01
2.554600e-01
2.667624e-01
2.791700e-01
2.925992e-01
5.000000e-01
5.000000e-01
5.000000e-01
5.000000e-01
5.000000e-01
5.000000e-01
5.000000e-01
5.000000e-01
5.000000e-01
5.000000e-01
5.000000e-01
5.000000e-01
5.000000e-01
5.000000e-01
5.000000e-01
5.000000e-01
5.000000e-01
5.000000e-01
5.000000e-01
5.000000e-01
5.000000e-01
5.000000e-01
5.000000e-01
5.000000e-01
5.000000e-01
5.000000e-01
5.000000e-01
5.000000e-01
5.000000e-01
5.000000e-01
5.000000e-01
5.000000e-01
5.000000e-01
1.888000e-01
1.888000e-01
1.888000e-01
1.888000e-01
1.888000e-01
1.888000e-01
1.888000e-01
1.888000e-01
1.888000e-01
1.888000e-01
1.888000e-01
1.888000e-01
1.888000e-01
1.888000e-01
1.888000e-01
1.888000e-01
1.888000e-01
1.888000e-01
1.888000e-01
1.888000e-01
1.888000e-01
1.888000e-01
1.888000e-01
1.888000e-01
1.888000e-01
1.888000e-01
1.888000e-01
1.888000e-01
1.888000e-01
1.888000e-01
1.888000e-01
1.888000e-01
1.888000e-01
3.680317e-01
3.779181e-01
3.739855e-01
3.835774e-01
3.937623e-01
4.180932e-01
4.009434e-01
4.084499e-01
3.346627e-01
3.433865e-01
3.506630e-01
3.517520e-01
3.588332e-01
3.644500e-01
3.693098e-01
3.920664e-01
3.759226e-01
3.676685e-01
3.831219e-01
3.985996e-01
3.600427e-01
3.598849e-01
2.125408e-01
2.031345e-01
3.734310e-01
3.888519e-01
4.044576e-01
3.880945e-01
3.980599e-01
4.083700e-01
4.021848e-01
4.115552e-01
4.155184e-01
4.347776e-01
4.044413e-01
4.161072e-01
3.993733e-01
4.219894e-01
4.075753e-01
3.924814e-01
4.272315e-01
4.135214e-01
4.005574e-01
3.873710e-01
4.265676e-01
4.370244e-01
4.335699e-01
4.233104e-01
4.147059e-01
2.313132e-01
2.197266e-01
2.064202e-01
3.828088e-01
3.924662e-01
4.006355e-01
3.758518e-01
3.851982e-01
3.688686e-01
2.028800e-01
2.136163e-01
2.159133e-01
2.265878e-01
2.294050e-01
2.379283e-01
2.405149e-01
2.434427e-01
2.445312e-01
2.509531e-01
2.546379e-01
2.578831e-01
2.592641e-01
2.649881e-01
2.690818e-01
2.726177e-01
2.681128e-01
2.743563e-01
2.796108e-01
2.838259e-01
2.875612e-01
2.782882e-01
2.839748e-01
2.896411e-01
2.946008e-01
2.987839e-01
3.026142e-01
2.880033e-01
2.488357e-01
2.374707e-01
2.253364e-01
2.127167e-01
2.040164e-01
2.939924e-01
2.997029e-01
3.050648e-01
3.098269e-01
3.138279e-01
3.176459e-01
3.033516e-01
3.097923e-01
3.154124e-01
3.205791e-01
3.252384e-01
3.287601e-01
3.324873e-01
3.119086e-01
3.192605e-01
3.258518e-01
3.310476e-01
3.361277e-01
3.409651e-01
3.431564e-01
3.469813e-01
3.203674e-01
3.279538e-01
3.354330e-01
3.423402e-01
3.462395e-01
3.517055e-01
3.578554e-01
3.558213e-01
3.616186e-01
3.750694e-01
4.126468e-01
3.557260e-01
3.695710e-01
3.847924e-01
2.661329e-01
2.552722e-01
2.437612e-01
2.321035e-01
2.214604e-01
2.110464e-01
4.001613e-01
3.460267e-01
3.611018e-01
3.770453e-01
3.928446e-01
4.069065e-01
4.199010e-01
3.761251e-01
3.849993e-01
3.905426e-01
3.961644e-01
4.011127e-01
4.074181e-01
4.139379e-01
4.203536e-01
4.208824e-01
4.242108e-01
4.279516e-01
4.300008e-01
4.327103e-01
4.360384e-01
4.075041e-01
4.154403e-01
4.222447e-01
4.288564e-01
4.352687e-01
4.404495e-01
4.438146e-01
4.197164e-01
4.231137e-01
4.292946e-01
4.369236e-01
4.428438e-01
4.472546e-01
4.510668e-01
4.326163e-01
4.447834e-01
4.430859e-01
4.521814e-01
4.544086e-01
4.578882e-01
4.616257e-01
4.644746e-01
4.435955e-01
4.571643e-01
4.653348e-01
4.703708e-01
4.541599e-01
4.659226e-01
4.712162e-01
4.755603e-01
4.721505e-01
4.809180e-01
2.838617e-01
2.730762e-01
2.618548e-01
2.504704e-01
2.392891e-01
2.279884e-01
2.148181e-01
2.049328e-01
4.781339e-01
4.859372e-01
4.805442e-01
4.869065e-01
4.936476e-01
4.981852e-01
4.959274e-01
4.930117e-01
4.925770e-01
4.895626e-01
4.879992e-01
4.886801e-01
4.823250e-01
4.831539e-01
4.841991e-01
4.854600e-01
4.756367e-01
4.764416e-01
4.776367e-01
4.790935e-01
4.807315e-01
4.685042e-01
4.698511e-01
4.715191e-01
4.734250e-01
4.754591e-01
4.673142e-01
4.697423e-01
4.592217e-01
4.608211e-01
4.627031e-01
4.649070e-01
4.487744e-01
4.505597e-01
4.526088e-01
4.551135e-01
4.579884e-01
4.609225e-01
4.636165e-01
4.375493e-01
4.391905e-01
4.412208e-01
4.439395e-01
4.473632e-01
4.510888e-01
4.543245e-01
4.567986e-01
4.140594e-01
4.153404e-01
4.269411e-01
4.286178e-01
4.311799e-01
4.353472e-01
4.397967e-01
4.449668e-01
4.460736e-01
4.496820e-01
4.165747e-01
4.276801e-01
4.089776e-01
2.362090e-01
2.598589e-01
2.467965e-01
2.651084e-01
2.586948e-01
2.822998e-01
2.779780e-01
2.713212e-01
3.045657e-01
2.967797e-01
3.019505e-01
2.909682e-01
2.797930e-01
2.685159e-01
2.572321e-01
2.458323e-01
2.339818e-01
2.226982e-01
2.115913e-01
2.903759e-01
2.837453e-01
3.244372e-01
3.164627e-01
3.092192e-01
3.024717e-01
2.958778e-01
3.357654e-01
3.280465e-01
3.209741e-01
3.142626e-01
3.077213e-01
3.544989e-01
3.465143e-01
3.391852e-01
3.323580e-01
3.257932e-01
3.192949e-01
3.722643e-01
3.644226e-01
3.569176e-01
3.500269e-01
3.435175e-01
3.371124e-01
3.305876e-01
3.884977e-01
3.817934e-01
3.739934e-01
3.671012e-01
3.607117e-01
3.545741e-01
3.482043e-01
3.415140e-01
4.019646e-01
3.996776e-01
3.901530e-01
3.834760e-01
3.771206e-01
3.714863e-01
3.655670e-01
3.588459e-01
3.519749e-01
4.439712e-01
4.344138e-01
4.224993e-01
4.090977e-01
3.942698e-01
3.784090e-01
3.619402e-01
4.315808e-01
4.186532e-01
4.041424e-01
3.874947e-01
3.713221e-01
2.034963e-01
2.020848e-01
2.048464e-01
2.189653e-01
2.146739e-01
2.230792e-01
2.346188e-01
2.030870e-01
2.161949e-01
2.282466e-01
2.387789e-01
2.500628e-01
2.040430e-01
2.177989e-01
2.306605e-01
2.426926e-01
2.540317e-01
2.654048e-01
3.203415e-01
3.089117e-01
2.976205e-01
2.863937e-01
2.751456e-01
2.637900e-01
2.522256e-01
2.406198e-01
2.287455e-01
2.153650e-01
2.043424e-01
2.004151e-01
2.078482e-01
2.200500e-01
2.328613e-01
2.454040e-01
2.574945e-01
2.692218e-01
2.807472e-01
1.995909e-01
2.030497e-01
2.142519e-01
2.240118e-01
2.356203e-01
2.479319e-01
2.602798e-01
2.724405e-01
2.844247e-01
2.962136e-01
2.070224e-01
2.179850e-01
2.287294e-01
2.392109e-01
2.507657e-01
2.629049e-01
2.751766e-01
2.873993e-01
2.995885e-01
3.120519e-01
3.257092e-01
2.010790e-01
2.120630e-01
2.220432e-01
2.328157e-01
2.433447e-01
2.538942e-01
2.656221e-01
2.777537e-01
2.900132e-01
3.022538e-01
3.144348e-01
3.267576e-01
3.379303e-01
2.020613e-01
2.143158e-01
2.249648e-01
2.365807e-01
2.476697e-01
2.579410e-01
2.680403e-01
2.803525e-01
2.924348e-01
3.047537e-01
3.169779e-01
3.290598e-01
3.416213e-01
3.513356e-01
1.961872e-01
2.040028e-01
2.154727e-01
2.283390e-01
2.375830e-01
2.517340e-01
2.627418e-01
2.726221e-01
2.811702e-01
2.955035e-01
3.068170e-01
3.194642e-01
3.315607e-01
3.431950e-01
3.578019e-01
3.647668e-01
3.388902e-01
3.267738e-01
3.152491e-01
3.040878e-01
2.929576e-01
2.817107e-01
2.702741e-01
2.586429e-01
2.467049e-01
2.341737e-01
2.215613e-01
2.072307e-01
4.991322e-01
4.996968e-01
4.970630e-01
4.986034e-01
4.996171e-01
4.938649e-01
4.964073e-01
4.982982e-01
4.995425e-01
4.857480e-01
4.897340e-01
4.931051e-01
4.958920e-01
4.980495e-01
4.994758e-01
4.701897e-01
4.790502e-01
4.843788e-01
4.886758e-01
4.923342e-01
4.953970e-01
4.977984e-01
4.994036e-01
4.730451e-01
4.782499e-01
4.831510e-01
4.875976e-01
4.915152e-01
4.948449e-01
4.974916e-01
4.993021e-01
4.602734e-01
4.655763e-01
4.710074e-01
4.765218e-01
4.816787e-01
4.863813e-01
4.905610e-01
4.941423e-01
4.970279e-01
4.990922e-01
4.996204e-01
4.489372e-01
4.561903e-01
4.626089e-01
4.687518e-01
4.745890e-01
4.800147e-01
4.849663e-01
4.893766e-01
4.931528e-01
4.961518e-01
4.981705e-01
4.994936e-01
4.280074e-01
4.374581e-01
4.457222e-01
4.530691e-01
4.599098e-01
4.663851e-01
4.724727e-01
4.781236e-01
4.832862e-01
4.878970e-01
4.918761e-01
4.951337e-01
4.976635e-01
4.993674e-01
4.021487e-01
4.152705e-01
4.256125e-01
4.346583e-01
4.426479e-01
4.500963e-01
3.572414e-01
3.443343e-01
3.324486e-01
3.214918e-01
3.105989e-01
2.995414e-01
2.882532e-01
2.767115e-01
2.648650e-01
2.526202e-01
2.400216e-01
2.268607e-01
2.137419e-01
4.571618e-01
4.638449e-01
4.701161e-01
4.759431e-01
4.812785e-01
4.860902e-01
4.903658e-01
4.940747e-01
4.971730e-01
4.992208e-01
2.026949e-01
2.168695e-01
2.312652e-01
2.459246e-01
2.608321e-01
2.759432e-01
2.911934e-01
3.065025e-01
3.217829e-01
3.369700e-01
3.520918e-01
3.671304e-01
3.819765e-01
3.967532e-01
4.109803e-01
4.244201e-01
4.368790e-01
4.489453e-01
4.610980e-01
4.695183e-01
4.774430e-01
4.860594e-01
4.921477e-01
4.967776e-01
3.901423e-01
4.041569e-01
4.138261e-01
4.234091e-01
4.315717e-01
4.394312e-01
4.470209e-01
4.542456e-01
4.610496e-01
4.674499e-01
4.734029e-01
4.788301e-01
4.838315e-01
4.884733e-01
4.925519e-01
4.968506e-01
4.987965e-01
2.033867e-01
2.181728e-01
2.331661e-01
2.483675e-01
2.637607e-01
2.793071e-01
2.949506e-01
3.106259e-01
3.262699e-01
3.418342e-01
3.572679e-01
3.724911e-01
3.874154e-01
4.019177e-01
4.158226e-01
4.290238e-01
4.414551e-01
4.531060e-01
4.635482e-01
4.727827e-01
4.810262e-01
4.882748e-01
4.940166e-01
4.981489e-01
2.040978e-01
2.195289e-01
2.351204e-01
2.508880e-01
2.668114e-01
2.828451e-01
2.989300e-01
3.150011e-01
3.309922e-01
3.468345e-01
3.624482e-01
3.777403e-01
3.926066e-01
4.069342e-01
4.206152e-01
4.335547e-01
4.456542e-01
4.567885e-01
4.668408e-01
4.758057e-01
4.836288e-01
4.902004e-01
4.953130e-01
4.987234e-01
2.048349e-01
2.209236e-01
2.371752e-01
2.535810e-01
2.700925e-01
2.866481e-01
3.031824e-01
3.196268e-01
3.359091e-01
3.749621e-01
3.614073e-01
3.487610e-01
3.384481e-01
3.279938e-01
3.172305e-01
3.061533e-01
2.947695e-01
2.830751e-01
2.710438e-01
2.586623e-01
2.458757e-01
2.326607e-01
2.182695e-01
2.071920e-01
3.519505e-01
3.676650e-01
3.829582e-01
3.977295e-01
4.118777e-01
4.253066e-01
4.379215e-01
4.496239e-01
4.603220e-01
4.699492e-01
4.784472e-01
4.857295e-01
4.916874e-01
4.961755e-01
4.990145e-01
2.055058e-01
2.224022e-01
2.394588e-01
2.565939e-01
2.737329e-01
2.908101e-01
3.077637e-01
3.245299e-01
3.410378e-01
3.572106e-01
3.729670e-01
3.882151e-01
4.028525e-01
4.167784e-01
4.299050e-01
4.421468e-01
4.534191e-01
4.636507e-01
4.727836e-01
4.807478e-01
4.874608e-01
4.928363e-01
4.967786e-01
4.991907e-01
2.063797e-01
2.242830e-01
2.422478e-01
2.601409e-01
2.778858e-01
2.954325e-01
3.127350e-01
3.297454e-01
3.464014e-01
3.626424e-01
3.783979e-01
3.935654e-01
4.080254e-01
4.216686e-01
4.344338e-01
4.462496e-01
4.570457e-01
4.667648e-01
4.753631e-01
4.827675e-01
4.889159e-01
4.937570e-01
4.972361e-01
4.993166e-01
2.078579e-01
2.269348e-01
2.458386e-01
2.644283e-01
2.826907e-01
3.006119e-01
3.181389e-01
3.352775e-01
3.519831e-01
3.682598e-01
3.840085e-01
3.990717e-01
4.133124e-01
4.265819e-01
4.389110e-01
4.502289e-01
4.605160e-01
4.696936e-01
4.777352e-01
4.845569e-01
4.901641e-01
4.945367e-01
4.976222e-01
4.994239e-01
2.099990e-01
2.306818e-01
2.505050e-01
2.695500e-01
2.882883e-01
3.064977e-01
3.239488e-01
3.409933e-01
3.576451e-01
3.741527e-01
3.898784e-01
4.047989e-01
4.188478e-01
4.315655e-01
4.433142e-01
4.539914e-01
4.639104e-01
4.725303e-01
4.799403e-01
4.860979e-01
4.912431e-01
4.952595e-01
3.917772e-01
3.783061e-01
3.632055e-01
3.548615e-01
3.450952e-01
3.347258e-01
3.239268e-01
3.127523e-01
3.012481e-01
2.894363e-01
2.773122e-01
2.648555e-01
2.520729e-01
2.390755e-01
2.268535e-01
2.136700e-01
4.980087e-01
4.995370e-01
2.146091e-01
2.372656e-01
2.557080e-01
2.754017e-01
2.951096e-01
3.136416e-01
3.299055e-01
3.447050e-01
3.638207e-01
3.807009e-01
3.960046e-01
4.106396e-01
4.253073e-01
4.370091e-01
4.468838e-01
4.573010e-01
4.677799e-01
4.756686e-01
4.815887e-01
4.872710e-01
4.921546e-01
4.960914e-01
4.985408e-01
4.996244e-01
4.996212e-01
4.994511e-01
4.983415e-01
4.996499e-01
4.990527e-01
4.977503e-01
4.960486e-01
4.994575e-01
4.983532e-01
4.969205e-01
4.949612e-01
4.926897e-01
4.990783e-01
4.977142e-01
4.958920e-01
4.936833e-01
4.910727e-01
4.882006e-01
4.994898e-01
4.980619e-01
4.968120e-01
4.947820e-01
4.922481e-01
4.893196e-01
4.860597e-01
4.825376e-01
4.757939e-01
4.993047e-01
4.978077e-01
4.957513e-01
4.935089e-01
4.907058e-01
4.874424e-01
4.838207e-01
4.799281e-01
4.681862e-01
4.996366e-01
4.989392e-01
4.972957e-01
4.949843e-01
4.922067e-01
4.890767e-01
4.854817e-01
4.814817e-01
4.771891e-01
4.727269e-01
4.597428e-01
4.994276e-01
4.982521e-01
4.965559e-01
4.940791e-01
4.909936e-01
4.874440e-01
4.834835e-01
4.791021e-01
4.743579e-01
4.694257e-01
4.644993e-01
4.990572e-01
4.976440e-01
4.956371e-01
4.930055e-01
4.896998e-01
4.858318e-01
4.814944e-01
4.767311e-01
4.715697e-01
4.660309e-01
4.605064e-01
4.552343e-01
4.499920e-01
4.384000e-01
4.995525e-01
4.982131e-01
4.968809e-01
4.947030e-01
4.918281e-01
4.883032e-01
4.841713e-01
4.795167e-01
4.743903e-01
4.688407e-01
4.629224e-01
4.563386e-01
4.504010e-01
4.450287e-01
3.954514e-01
4.076008e-01
4.993963e-01
4.981580e-01
4.961683e-01
4.937647e-01
4.906510e-01
4.868599e-01
4.824541e-01
4.775090e-01
4.720859e-01
4.661617e-01
4.598438e-01
4.533804e-01
4.445086e-01
4.392959e-01
4.345540e-01
4.229350e-01
1.888000e-01
1.888000e-01
1.888000e-01
1.888000e-01
1.888000e-01
1.888000e-01
1.888000e-01
1.888000e-01
1.888000e-01
1.888000e-01
1.888000e-01
1.888000e-01
1.888000e-01
1.888000e-01
1.888000e-01
1.888000e-01
1.888000e-01
1.888000e-01
1.888000e-01
1.888000e-01
1.888000e-01
1.888000e-01
1.888000e-01
1.888000e-01
1.888000e-01
1.888000e-01
1.888000e-01
1.888000e-01
1.888000e-01
1.888000e-01
1.888000e-01
1.888000e-01
1.888000e-01
1.888000e-01
1.888000e-01
1.888000e-01
1.888000e-01
1.888000e-01
1.888000e-01
1.888000e-01
1.888000e-01
1.888000e-01
1.888000e-01
1.888000e-01
1.888000e-01
1.888000e-01
1.888000e-01
1.888000e-01
1.888000e-01
1.888000e-01
1.888000e-01
1.888000e-01
1.888000e-01
1.888000e-01
1.888000e-01
1.888000e-01
1.888000e-01
1.888000e-01
1.888000e-01
1.888000e-01
1.888000e-01
1.888000e-01
1.888000e-01
1.888000e-01
1.888000e-01
1.888000e-01
1.888000e-01
1.888000e-01
1.888000e-01
1.888000e-01
1.888000e-01
1.888000e-01
1.888000e-01
1.888000e-01
1.888000e-01
1.888000e-01
1.888000e-01
1.888000e-01
1.888000e-01
1.888000e-01
1.888000e-01
1.888000e-01
1.888000e-01
1.888000e-01
1.888000e-01
1.888000e-01
1.888000e-01
1.888000e-01
1.888000e-01
1.888000e-01
1.888000e-01
1.888000e-01
1.888000e-01
1.888000e-01
1.888000e-01
1.888000e-01
1.888000e-01
1.888000e-01
1.888000e-01
1.888000e-01
1.888000e-01
1.888000e-01
1.888000e-01
1.888000e-01
1.888000e-01
1.888000e-01
1.888000e-01
1.888000e-01
1.888000e-01
1.888000e-01
1.888000e-01
1.888000e-01
1.888000e-01
1.888000e-01
1.888000e-01
1.888000e-01
1.888000e-01
1.888000e-01
1.888000e-01
1.888000e-01
1.888000e-01
1.888000e-01
1.888000e-01
1.888000e-01
1.888000e-01
1.888000e-01
1.888000e-01
1.888000e-01
1.888000e-01
1.888000e-01
1.888000e-01
1.888000e-01
1.888000e-01
1.888000e-01
1.888000e-01
1.888000e-01
1.888000e-01
1.888000e-01
1.888000e-01
1.888000e-01
1.888000e-01
1.888000e-01
1.888000e-01
1.888000e-01
1.888000e-01
1.888000e-01
1.888000e-01
1.888000e-01
1.888000e-01
1.888000e-01
1.888000e-01
1.888000e-01
1.888000e-01
1.888000e-01
1.888000e-01
1.888000e-01
1.888000e-01
1.888000e-01
1.888000e-01
1.888000e-01
1.888000e-01
1.888000e-01
1.888000e-01
1.888000e-01
1.888000e-01
1.888000e-01
1.888000e-01
1.888000e-01
1.888000e-01
1.888000e-01
1.888000e-01
1.888000e-01
1.888000e-01
1.888000e-01
1.888000e-01
1.888000e-01
1.888000e-01
1.888000e-01
1.888000e-01
1.888000e-01
1.888000e-01
1.888000e-01
1.888000e-01
1.888000e-01
1.888000e-01
1.888000e-01
1.888000e-01
1.888000e-01
1.888000e-01
1.888000e-01
1.888000e-01
1.888000e-01
1.888000e-01
1.888000e-01
1.888000e-01
1.888000e-01
1.888000e-01
1.888000e-01
1.888000e-01
1.888000e-01
1.888000e-01
1.888000e-01
1.888000e-01
1.888000e-01
1.888000e-01
1.888000e-01
1.888000e-01
1.888000e-01
1.888000e-01
1.888000e-01
1.888000e-01
1.888000e-01
1.888000e-01
1.888000e-01
1.888000e-01
1.888000e-01
1.888000e-01
1.888000e-01
1.888000e-01
1.888000e-01
1.888000e-01
1.888000e-01
1.888000e-01
1.888000e-01
1.888000e-01
1.888000e-01
1.888000e-01
1.888000e-01
1.888000e-01
1.888000e-01
1.888000e-01
1.888000e-01
1.888000e-01
1.888000e-01
1.888000e-01
1.888000e-01
1.888000e-01
1.888000e-01
1.888000e-01
1.888000e-01
1.888000e-01
1.888000e-01
1.888000e-01
1.888000e-01
1.888000e-01
1.888000e-01
1.888000e-01
1.888000e-01
1.888000e-01
1.888000e-01
1.888000e-01
1.888000e-01
1.888000e-01
1.888000e-01
1.888000e-01
1.888000e-01
1.888000e-01
1.888000e-01
1.888000e-01
1.888000e-01
1.888000e-01
1.888000e-01
1.888000e-01
1.888000e-01
1.888000e-01
1.888000e-01
1.888000e-01
1.888000e-01
1.888000e-01
1.888000e-01
1.888000e-01
1.888000e-01
1.888000e-01
1.888000e-01
1.888000e-01
1.888000e-01
1.888000e-01
1.888000e-01
1.888000e-01
1.888000e-01
1.888000e-01
1.888000e-01
1.888000e-01
1.888000e-01
1.888000e-01
1.888000e-01
1.888000e-01
1.888000e-01
1.888000e-01
1.888000e-01
1.888000e-01
1.888000e-01
1.888000e-01
1.888000e-01
1.888000e-01
1.888000e-01
1.888000e-01
1.888000e-01
1.888000e-01
1.888000e-01
1.888000e-01
1.888000e-01
1.888000e-01
1.888000e-01
1.888000e-01
1.888000e-01
1.888000e-01
1.888000e-01
1.888000e-01
1.888000e-01
1.888000e-01
1.888000e-01
1.888000e-01
1.888000e-01
1.888000e-01
1.888000e-01
1.888000e-01
1.888000e-01
1.888000e-01
1.888000e-01
1.888000e-01
1.888000e-01
1.888000e-01
1.888000e-01
1.888000e-01
1.888000e-01
1.888000e-01
1.888000e-01
1.888000e-01
1.888000e-01
1.888000e-01
1.888000e-01
1.888000e-01
1.888000e-01
1.888000e-01
1.888000e-01
1.888000e-01
1.888000e-01
1.888000e-01
1.888000e-01
1.888000e-01
1.888000e-01
1.888000e-01
1.888000e-01
1.888000e-01
1.888000e-01
1.888000e-01
1.888000e-01
1.888000e-01
1.888000e-01
1.888000e-01
1.888000e-01
1.888000e-01
1.888000e-01
1.888000e-01
1.888000e-01
1.888000e-01
1.888000e-01
1.888000e-01
1.888000e-01
1.888000e-01
1.888000e-01
1.888000e-01
1.888000e-01
1.888000e-01
1.888000e-01
1.888000e-01
1.888000e-01
1.888000e-01
1.888000e-01
3.388000e-01
3.388000e-01
3.388000e-01
3.388000e-01
3.388000e-01
3.388000e-01
3.388000e-01
3.388000e-01
3.388000e-01
3.388000e-01
3.388000e-01
3.388000e-01
3.388000e-01
3.388000e-01
3.388000e-01
3.388000e-01
3.388000e-01
3.388000e-01
3.388000e-01
3.388000e-01
3.388000e-01
3.388000e-01
3.388000e-01
3.388000e-01
3.388000e-01
3.388000e-01
3.388000e-01
3.388000e-01
3.388000e-01
3.388000e-01
3.388000e-01
3.388000e-01
3.388000e-01
2.968466e-01
2.908119e-01
3.066679e-01
2.956087e-01
2.998966e-01
2.877545e-01
2.865410e-01
2.816054e-01
2.773021e-01
2.946325e-01
2.875356e-01
2.817094e-01
2.915280e-01
2.798871e-01
2.880860e-01
2.108616e-01
3.372911e-01
3.348876e-01
3.296999e-01
3.319143e-01
3.302037e-01
3.256136e-01
3.302834e-01
3.272430e-01
3.241515e-01
3.243477e-01
3.206085e-01
3.166796e-01
3.204423e-01
3.165168e-01
3.126127e-01
3.080362e-01
3.347780e-01
3.158793e-01
3.115902e-01
3.072299e-01
3.045852e-01
2.983442e-01
2.925489e-01
2.976084e-01
2.865555e-01
3.115806e-01
3.025465e-01
3.375863e-01
2.919181e-01
2.790290e-01
2.872152e-01
2.814152e-01
2.754578e-01
2.706468e-01
2.679428e-01
2.736119e-01
2.675944e-01
2.626441e-01
2.587777e-01
2.651611e-01
2.579795e-01
2.534050e-01
2.491846e-01
2.466098e-01
2.429726e-01
2.389985e-01
2.318272e-01
2.280852e-01
2.152781e-01
2.575723e-01
2.417303e-01
2.284825e-01
2.177993e-01
2.051249e-01
3.297151e-01
3.256911e-01
3.381979e-01
3.360973e-01
3.373151e-01
3.327882e-01
3.344740e-01
3.306367e-01
3.261110e-01
3.308112e-01
3.341389e-01
3.371175e-01
2.351291e-01
2.230079e-01
2.065111e-01
2.342793e-01
2.180158e-01
2.007991e-01
3.294510e-01
3.254336e-01
3.381296e-01
3.359652e-01
3.371847e-01
3.326581e-01
3.342777e-01
3.303832e-01
3.258231e-01
2.341769e-01
2.224292e-01
2.071315e-01
2.351867e-01
2.185407e-01
2.009152e-01
3.380737e-01
3.357999e-01
3.369793e-01
3.324071e-01
3.339209e-01
3.300421e-01
3.257297e-01
2.358535e-01
2.234165e-01
2.071007e-01
3.378691e-01
3.349471e-01
3.319562e-01
3.297295e-01
3.269774e-01
3.258125e-01
3.189001e-01
2.352229e-01
2.200517e-01
2.019078e-01
2.610454e-01
2.472610e-01
2.323771e-01
2.145343e-01
2.006894e-01
3.299519e-01
3.260732e-01
3.381545e-01
3.360133e-01
3.371906e-01
3.326845e-01
3.343063e-01
3.303090e-01
3.257794e-01
2.373121e-01
2.248265e-01
2.081457e-01
2.348375e-01
2.190836e-01
3.168851e-01
3.240790e-01
3.289122e-01
3.326897e-01
2.012813e-01
3.380935e-01
3.359764e-01
3.329327e-01
2.370046e-01
2.244865e-01
2.070968e-01
3.277194e-01
3.232815e-01
3.378600e-01
3.353328e-01
3.367213e-01
3.316697e-01
3.332043e-01
3.268024e-01
3.284522e-01
3.206653e-01
3.232032e-01
2.563807e-01
2.434906e-01
2.304185e-01
2.175937e-01
2.034719e-01
2.301764e-01
2.151071e-01
1.996485e-01
3.378299e-01
3.350633e-01
3.363208e-01
3.311146e-01
3.328726e-01
3.287385e-01
3.240975e-01
3.059879e-01
2.323015e-01
2.210979e-01
2.054902e-01
3.382511e-01
3.354559e-01
3.315858e-01
3.287983e-01
3.259079e-01
3.245706e-01
3.170492e-01
2.332960e-01
2.180073e-01
2.009976e-01
2.584173e-01
2.450022e-01
2.306101e-01
2.133476e-01
2.000571e-01
3.284299e-01
3.241742e-01
3.379422e-01
3.354965e-01
3.368733e-01
3.319051e-01
3.335686e-01
3.290924e-01
3.241619e-01
2.351659e-01
2.230438e-01
2.070249e-01
2.319106e-01
2.170225e-01
2.003676e-01
3.285822e-01
3.243910e-01
3.379479e-01
2.973714e-01
3.354160e-01
3.368414e-01
3.316945e-01
3.335910e-01
3.293797e-01
3.245546e-01
2.328628e-01
2.207824e-01
2.054082e-01
2.305874e-01
2.159213e-01
1.998396e-01
3.378919e-01
3.352330e-01
3.364500e-01
3.314907e-01
3.327198e-01
3.277908e-01
3.227824e-01
2.315663e-01
2.202250e-01
2.046980e-01
3.376625e-01
3.355658e-01
3.327713e-01
3.267765e-01
3.275996e-01
3.222177e-01
3.188101e-01
2.309053e-01
2.158787e-01
1.998072e-01
2.611991e-01
2.481843e-01
2.295015e-01
2.160589e-01
2.035771e-01
3.377621e-01
3.346139e-01
3.353567e-01
3.147731e-01
3.217297e-01
3.269865e-01
3.309327e-01
3.334642e-01
3.366055e-01
3.301747e-01
3.313482e-01
3.263850e-01
3.212373e-01
2.306852e-01
2.193813e-01
2.047240e-01
3.377298e-01
3.334761e-01
3.268326e-01
3.220733e-01
3.160043e-01
2.309433e-01
2.158069e-01
1.997325e-01
2.032507e-01
3.313301e-01
3.288441e-01
3.247098e-01
3.242128e-01
3.174781e-01
3.158979e-01
3.178908e-01
3.104673e-01
3.020073e-01
3.051197e-01
3.087774e-01
3.108723e-01
2.937382e-01
2.982846e-01
3.023364e-01
3.009528e-01
2.740108e-01
2.646378e-01
2.575148e-01
2.502955e-01
2.419902e-01
2.320746e-01
2.213791e-01
2.135951e-01
2.038886e-01
2.200465e-01
2.253821e-01
2.349707e-01
2.357632e-01
2.513207e-01
2.475869e-01
2.446905e-01
2.611749e-01
2.570262e-01
2.535578e-01
2.613949e-01
2.742147e-01
2.692930e-01
2.650581e-01
2.858806e-01
2.812923e-01
2.762177e-01
2.722199e-01
2.688769e-01
2.942833e-01
2.766826e-01
2.845604e-01
2.881363e-01
3.354165e-01
2.024586e-01
3.374544e-01
3.372557e-01
3.358152e-01
3.333928e-01
3.381699e-01
3.283509e-01
3.260828e-01
3.229347e-01
2.984674e-01
3.047737e-01
3.127401e-01
3.197102e-01
3.253224e-01
3.296414e-01
3.330231e-01
3.361450e-01
3.382249e-01
3.368861e-01
3.345272e-01
3.309666e-01
3.113754e-01
3.379874e-01
3.362343e-01
3.336788e-01
3.299293e-01
3.255342e-01
3.212830e-01
3.168954e-01
3.384332e-01
3.375053e-01
3.350453e-01
3.331454e-01
3.284818e-01
3.236984e-01
3.192922e-01
3.156691e-01
3.085837e-01
3.020111e-01
2.073973e-01
1.988536e-01
2.338410e-01
2.253366e-01
2.143887e-01
2.040249e-01
2.359804e-01
2.221847e-01
2.694831e-01
2.639922e-01
2.546388e-01
2.416683e-01
2.305405e-01
2.198576e-01
2.093624e-01
2.005252e-01
2.544631e-01
2.445367e-01
3.278062e-01
3.216375e-01
3.148318e-01
3.062020e-01
2.959938e-01
2.841867e-01
2.714326e-01
3.381342e-01
3.365437e-01
3.330077e-01
3.275748e-01
3.206850e-01
3.117477e-01
3.022540e-01
2.916449e-01
2.804092e-01
2.707083e-01
2.592859e-01
2.485498e-01
2.364607e-01
2.205123e-01
2.063573e-01
2.819133e-01
2.748747e-01
2.662617e-01
2.559606e-01
2.453571e-01
2.349440e-01
2.244765e-01
2.141559e-01
2.039573e-01
1.998259e-01
3.169629e-01
3.099937e-01
3.006395e-01
2.893283e-01
2.228177e-01
2.173529e-01
2.045043e-01
2.743549e-01
2.609526e-01
2.468024e-01
2.321400e-01
2.171809e-01
2.044434e-01
3.276451e-01
3.214652e-01
3.144425e-01
3.053440e-01
2.950703e-01
2.837402e-01
2.714850e-01
2.579626e-01
2.449361e-01
2.313651e-01
3.379942e-01
3.364015e-01
3.329577e-01
3.281462e-01
3.210039e-01
3.104312e-01
3.004120e-01
2.894151e-01
2.777198e-01
2.666435e-01
3.379849e-01
3.354847e-01
3.319464e-01