VARIABLES = "X" "Y" "Z" "FREF"
ZONE T="instant 119"
STRANDID=0, SOLUTIONTIME=0
Nodes=1235, Elements=2466
ZONETYPE=FETriangle
DATAPACKING=BLOCK
VARLOCATION = ([1-3]=NODAL, [4]=CELLCENTERED)
5.000000e-01
3.422888e-01
3.528507e-01
3.676787e-01
3.854530e-01
3.993757e-01
4.126252e-01
4.295755e-01
4.457515e-01
4.602767e-01
4.724805e-01
4.820983e-01
4.878691e-01
4.924415e-01
4.966650e-01
4.986761e-01
4.997104e-01
3.344000e-01
3.344000e-01
3.344000e-01
3.344000e-01
4.841285e-01
4.814143e-01
4.764056e-01
4.682186e-01
4.579646e-01
4.456679e-01
4.312451e-01
4.155806e-01
3.979393e-01
3.773209e-01
3.615641e-01
3.474187e-01
4.844000e-01
4.946390e-01
4.893335e-01
3.577898e-01
3.515026e-01
3.708933e-01
3.929381e-01
4.140390e-01
4.305308e-01
4.457723e-01
4.591699e-01
4.703865e-01
4.797276e-01
4.871370e-01
4.900567e-01
3.344000e-01
4.997111e-01
4.980243e-01
4.940153e-01
4.874945e-01
4.787162e-01
4.688729e-01
4.570671e-01
4.431869e-01
4.312551e-01
4.193352e-01
4.037084e-01
3.871178e-01
3.718718e-01
3.597910e-01
3.504756e-01
3.415551e-01
5.000000e-01
4.895556e-01
4.948198e-01
4.844000e-01
3.522648e-01
3.714411e-01
3.898692e-01
4.086388e-01
4.280897e-01
4.423694e-01
4.538687e-01
4.645440e-01
4.724621e-01
4.784070e-01
4.824449e-01
4.841190e-01
3.344000e-01
3.344000e-01
3.344000e-01
4.916272e-01
4.884434e-01
4.833100e-01
4.760066e-01
4.665832e-01
4.556616e-01
4.429465e-01
4.243147e-01
4.053935e-01
3.880661e-01
3.708980e-01
3.500246e-01
5.000000e-01
5.000000e-01
5.000000e-01
5.000000e-01
5.000000e-01
5.000000e-01
5.000000e-01
5.000000e-01
5.000000e-01
5.000000e-01
5.000000e-01
5.000000e-01
5.000000e-01
5.000000e-01
5.000000e-01
5.000000e-01
5.000000e-01
5.000000e-01
5.000000e-01
5.000000e-01
5.000000e-01
5.000000e-01
5.000000e-01
5.000000e-01
5.000000e-01
5.000000e-01
5.000000e-01
5.000000e-01
5.000000e-01
5.000000e-01
5.000000e-01
5.000000e-01
5.000000e-01
3.344000e-01
3.344000e-01
3.344000e-01
3.344000e-01
3.344000e-01
3.344000e-01
3.344000e-01
3.344000e-01
3.344000e-01
3.344000e-01
3.344000e-01
3.344000e-01
3.344000e-01
3.344000e-01
3.344000e-01
3.344000e-01
3.344000e-01
3.344000e-01
3.344000e-01
3.344000e-01
3.344000e-01
3.344000e-01
3.344000e-01
3.344000e-01
3.344000e-01
3.344000e-01
3.344000e-01
3.344000e-01
3.344000e-01
3.344000e-01
3.344000e-01
3.344000e-01
3.344000e-01
4.479260e-01
4.394175e-01
4.526000e-01
4.287645e-01
4.423809e-01
4.344879e-01
4.567916e-01
4.601444e-01
4.360644e-01
4.512180e-01
4.434380e-01
4.577507e-01
4.478323e-01
4.595750e-01
3.485884e-01
4.377368e-01
4.501236e-01
4.612528e-01
4.332932e-01
4.409194e-01
4.476819e-01
4.615674e-01
4.757238e-01
4.417754e-01
4.347858e-01
4.479248e-01
4.582959e-01
4.669945e-01
4.809362e-01
4.823560e-01
4.779486e-01
4.834452e-01
4.884919e-01
4.905901e-01
3.573796e-01
3.616177e-01
3.530922e-01
3.459818e-01
3.666345e-01
3.709214e-01
3.784841e-01
3.805315e-01
3.863472e-01
3.916226e-01
3.869576e-01
3.975642e-01
3.969021e-01
4.009543e-01
4.052297e-01
4.076698e-01
4.105595e-01
4.114249e-01
4.148515e-01
4.189119e-01
4.164960e-01
4.210130e-01
4.253049e-01
4.234543e-01
4.288101e-01
4.323308e-01
4.703498e-01
4.695903e-01
3.763063e-01
3.677751e-01
3.590864e-01
3.487012e-01
4.647692e-01
4.596203e-01
4.526475e-01
4.445926e-01
4.614640e-01
4.559247e-01
4.740452e-01
4.727167e-01
4.700250e-01
4.666161e-01
3.678849e-01
3.814328e-01
3.862521e-01
3.986617e-01
4.010583e-01
3.968699e-01
4.184836e-01
4.177362e-01
4.121617e-01
4.076533e-01
4.363728e-01
4.493392e-01
4.334766e-01
4.254323e-01
4.252579e-01
4.173898e-01
4.975263e-01
4.947867e-01
4.946314e-01
4.904899e-01
4.906183e-01
4.856283e-01
4.849130e-01
4.850058e-01
4.785120e-01
3.912169e-01
3.823743e-01
3.734059e-01
3.639277e-01
3.542327e-01
4.797699e-01
4.780765e-01
4.778215e-01
4.624276e-01
4.712801e-01
4.686598e-01
4.698030e-01
4.710707e-01
4.730540e-01
4.259650e-01
4.417977e-01
4.548478e-01
4.664547e-01
4.612022e-01
4.368649e-01
4.505591e-01
3.446763e-01
3.468079e-01
3.558062e-01
3.460037e-01
3.484073e-01
3.599280e-01
3.680514e-01
3.570462e-01
3.642957e-01
3.737571e-01
3.817864e-01
3.473818e-01
3.586062e-01
3.690524e-01
3.783028e-01
3.881105e-01
3.968949e-01
3.452448e-01
3.515049e-01
3.612314e-01
3.715659e-01
3.818936e-01
3.920379e-01
4.030693e-01
4.131099e-01
4.248627e-01
3.473908e-01
3.576303e-01
3.661508e-01
3.745578e-01
3.845627e-01
3.949032e-01
4.052675e-01
4.188042e-01
4.280171e-01
4.345059e-01
4.057599e-01
3.969101e-01
3.879626e-01
3.789019e-01
3.691417e-01
3.578428e-01
3.489242e-01
4.990447e-01
4.996296e-01
4.965017e-01
4.982065e-01
4.994730e-01
4.921534e-01
4.952201e-01
4.976089e-01
4.993291e-01
4.814794e-01
4.864973e-01
4.905632e-01
4.940559e-01
4.969955e-01
4.991350e-01
4.638555e-01
4.732368e-01
4.795848e-01
4.842657e-01
4.886316e-01
4.926658e-01
4.961559e-01
4.988178e-01
4.804379e-01
4.873633e-01
4.945561e-01
4.980230e-01
4.541354e-01
4.989575e-01
4.650083e-01
4.725093e-01
4.763696e-01
4.811804e-01
4.861728e-01
4.907601e-01
4.947397e-01
4.980691e-01
3.458444e-01
3.570069e-01
3.692692e-01
3.820128e-01
3.952339e-01
4.087390e-01
4.222351e-01
4.353542e-01
4.478799e-01
4.599798e-01
4.722258e-01
4.815211e-01
4.890702e-01
4.949130e-01
4.986028e-01
3.464186e-01
4.210836e-01
4.112401e-01
4.021993e-01
3.940562e-01
3.848495e-01
3.747605e-01
3.648878e-01
3.551069e-01
3.587053e-01
3.714343e-01
3.845657e-01
3.980009e-01
4.115804e-01
4.250634e-01
4.382075e-01
4.508424e-01
4.628081e-01
4.736142e-01
4.826791e-01
4.899911e-01
4.954332e-01
4.988294e-01
3.471448e-01
3.600168e-01
3.731527e-01
3.865809e-01
4.002188e-01
4.139090e-01
4.274348e-01
4.405651e-01
4.530596e-01
4.646242e-01
4.749059e-01
4.836326e-01
4.906401e-01
4.957857e-01
4.989395e-01
3.477066e-01
3.610281e-01
3.745082e-01
3.881916e-01
4.020058e-01
4.157947e-01
4.293409e-01
4.423994e-01
4.547042e-01
4.659726e-01
4.759339e-01
4.843699e-01
4.911105e-01
4.960217e-01
4.990037e-01
3.481444e-01
3.618218e-01
3.755836e-01
3.894782e-01
4.034358e-01
4.172972e-01
4.308404e-01
4.438143e-01
4.559556e-01
4.670054e-01
4.767289e-01
4.849311e-01
4.914562e-01
4.961872e-01
4.990468e-01
3.484913e-01
3.624532e-01
3.764420e-01
3.905065e-01
4.045768e-01
4.184896e-01
4.320204e-01
4.449184e-01
4.569287e-01
4.678096e-01
4.773472e-01
4.853632e-01
4.544429e-01
4.632147e-01
4.703429e-01
4.760405e-01
4.816288e-01
4.867660e-01
4.911604e-01
4.948111e-01
4.975427e-01
4.991702e-01
4.998165e-01
4.917177e-01
4.963100e-01
4.990784e-01
3.487739e-01
3.629660e-01
3.771368e-01
3.913378e-01
4.054977e-01
4.194503e-01
4.329688e-01
4.458044e-01
4.577097e-01
4.684560e-01
4.778435e-01
4.857086e-01
4.919258e-01
4.964076e-01
4.991037e-01
3.490156e-01
3.633944e-01
3.777131e-01
3.920289e-01
4.062676e-01
4.202570e-01
4.337681e-01
4.465535e-01
4.583724e-01
4.690059e-01
4.782665e-01
4.860034e-01
4.921039e-01
4.382852e-01
4.252420e-01
4.150614e-01
4.093806e-01
4.008933e-01
3.911083e-01
3.808383e-01
3.709475e-01
3.604831e-01
3.500683e-01
4.964920e-01
4.991265e-01
3.492274e-01
3.637510e-01
3.782073e-01
3.926372e-01
4.069561e-01
4.209865e-01
4.344966e-01
4.472407e-01
4.589834e-01
4.695152e-01
4.786596e-01
4.862782e-01
4.922702e-01
4.965708e-01
4.991474e-01
3.493158e-01
3.640483e-01
3.786730e-01
3.932301e-01
4.076380e-01
4.217165e-01
4.352309e-01
4.479367e-01
4.596051e-01
4.700354e-01
4.790627e-01
4.865604e-01
4.924407e-01
4.966505e-01
4.991677e-01
3.495520e-01
3.644410e-01
3.792025e-01
3.938849e-01
4.083928e-01
4.225273e-01
4.360468e-01
4.487099e-01
4.602960e-01
4.706150e-01
4.795130e-01
4.868765e-01
4.926316e-01
4.967393e-01
4.991900e-01
3.498466e-01
3.648666e-01
3.798080e-01
3.946686e-01
4.093062e-01
4.235026e-01
4.370190e-01
4.496248e-01
4.611116e-01
4.712996e-01
4.800462e-01
4.872522e-01
4.928600e-01
4.968469e-01
4.992177e-01
3.498574e-01
3.652845e-01
3.805860e-01
3.957054e-01
4.104870e-01
4.247292e-01
4.382162e-01
4.507399e-01
4.621024e-01
4.721318e-01
4.806955e-01
4.735400e-01
4.790072e-01
4.838920e-01
4.883314e-01
4.921417e-01
4.951849e-01
4.977272e-01
4.993787e-01
4.877113e-01
4.931420e-01
4.969831e-01
4.992542e-01
3.503244e-01
3.661885e-01
3.818384e-01
3.971815e-01
4.120495e-01
4.262739e-01
4.396904e-01
4.521049e-01
4.633149e-01
4.731499e-01
4.814893e-01
4.882745e-01
4.934921e-01
4.971566e-01
4.993018e-01
3.513254e-01
3.677733e-01
3.837635e-01
3.992299e-01
4.140319e-01
4.281433e-01
4.414728e-01
4.537705e-01
4.647954e-01
4.743848e-01
4.824451e-01
4.889599e-01
4.939266e-01
4.672447e-01
4.973761e-01
4.993587e-01
3.526301e-01
3.703346e-01
3.866251e-01
4.018728e-01
4.162584e-01
4.302727e-01
4.436157e-01
4.558219e-01
4.665960e-01
4.758390e-01
4.835445e-01
4.898028e-01
4.944902e-01
4.976435e-01
4.994038e-01
3.543988e-01
3.685566e-01
3.871386e-01
4.056148e-01
3.551308e-01
3.757941e-01
3.909611e-01
4.040476e-01
4.183156e-01
4.326732e-01
4.462939e-01
4.584536e-01
4.687764e-01
4.773816e-01
4.846212e-01
4.910143e-01
4.954063e-01
4.977519e-01
4.993680e-01
4.995452e-01
4.993122e-01
4.980088e-01
4.995610e-01
4.773883e-01
4.819631e-01
4.862489e-01
4.901138e-01
4.934393e-01
4.960574e-01
4.977517e-01
4.994453e-01
4.987670e-01
4.971665e-01
4.951118e-01
4.993175e-01
4.979312e-01
4.960639e-01
4.936091e-01
4.907480e-01
4.987870e-01
4.971062e-01
4.947841e-01
4.919168e-01
4.885828e-01
4.850524e-01
3.344000e-01
3.344000e-01
3.344000e-01
3.344000e-01
3.344000e-01
3.344000e-01
3.344000e-01
3.344000e-01
3.344000e-01
3.344000e-01
3.344000e-01
3.344000e-01
3.344000e-01
3.344000e-01
3.344000e-01
3.344000e-01
3.344000e-01
3.344000e-01
3.344000e-01
3.344000e-01
3.344000e-01
3.344000e-01
3.344000e-01
3.344000e-01
3.344000e-01
3.344000e-01
3.344000e-01
3.344000e-01
3.344000e-01
3.344000e-01
3.344000e-01
3.344000e-01
3.344000e-01
3.344000e-01
3.344000e-01
3.344000e-01
3.344000e-01
3.344000e-01
3.344000e-01
3.344000e-01
3.344000e-01
3.344000e-01
3.344000e-01
3.344000e-01
3.344000e-01
3.344000e-01
3.344000e-01
3.344000e-01
3.344000e-01
3.344000e-01
3.344000e-01
3.344000e-01
3.344000e-01
3.344000e-01
3.344000e-01
3.344000e-01
3.344000e-01
3.344000e-01
3.344000e-01
3.344000e-01
3.344000e-01
3.344000e-01
3.344000e-01
3.344000e-01
3.344000e-01
3.344000e-01
3.344000e-01
3.344000e-01
3.344000e-01
3.344000e-01
3.344000e-01
3.344000e-01
3.344000e-01
3.344000e-01
3.344000e-01
3.344000e-01
3.344000e-01
3.344000e-01
3.344000e-01
3.344000e-01
3.344000e-01
3.344000e-01
3.344000e-01
3.344000e-01
3.344000e-01
3.344000e-01
3.344000e-01
3.344000e-01
3.344000e-01
3.344000e-01
3.344000e-01
3.344000e-01
3.344000e-01
4.844000e-01
4.844000e-01
4.844000e-01
4.844000e-01
4.844000e-01
4.844000e-01
4.844000e-01
4.844000e-01
4.844000e-01
4.844000e-01
4.844000e-01
4.844000e-01
4.844000e-01
4.844000e-01
4.844000e-01
4.844000e-01
4.844000e-01
4.844000e-01
4.844000e-01
4.844000e-01
4.844000e-01
4.844000e-01
4.844000e-01
4.844000e-01
4.844000e-01
4.844000e-01
4.844000e-01
4.844000e-01
4.844000e-01
4.844000e-01
4.844000e-01
4.844000e-01
4.844000e-01
4.541202e-01
4.284345e-01
4.306099e-01
4.477322e-01
4.416343e-01
4.542923e-01
4.809815e-01
3.957073e-01
4.634047e-01
4.772818e-01
4.766161e-01
4.714628e-01
4.735769e-01
4.669611e-01
4.620351e-01
4.681909e-01
4.631252e-01
4.565522e-01
4.546896e-01
4.509321e-01
4.533293e-01
4.442589e-01
4.829729e-01
4.837980e-01
4.409342e-01
4.427762e-01
4.427002e-01
4.403108e-01
4.187391e-01
4.321472e-01
4.228321e-01
4.104557e-01
4.145837e-01
4.074987e-01
3.904765e-01
4.472211e-01
4.365670e-01
4.233195e-01
4.139308e-01
4.117777e-01
4.119094e-01
4.079178e-01
4.565138e-01
4.440032e-01
4.319702e-01
4.439761e-01
4.324173e-01
4.177701e-01
4.053241e-01
4.792668e-01
4.815814e-01
4.834529e-01
4.031677e-01
3.714412e-01
3.871095e-01
3.884381e-01
4.164718e-01
4.065774e-01
4.039363e-01
4.291788e-01
4.260858e-01
4.213180e-01
4.169140e-01
4.421170e-01
4.380839e-01
4.327859e-01
4.277056e-01
4.822626e-01
4.792240e-01
4.694495e-01
4.699837e-01
4.551055e-01
4.543754e-01
4.608975e-01
4.651048e-01
4.360886e-01
4.475776e-01
4.593396e-01
4.839154e-01
4.839250e-01
4.839645e-01
4.839407e-01
4.838921e-01
4.839399e-01
4.838943e-01
4.838533e-01
4.729315e-01
4.767437e-01
4.799235e-01
4.824820e-01
4.837630e-01
4.840443e-01
4.841553e-01
4.840259e-01
4.840894e-01
4.838300e-01
4.803197e-01
4.832549e-01
4.830053e-01
4.815346e-01
4.791028e-01
4.758763e-01
4.838239e-01
4.825191e-01
4.801437e-01
4.771724e-01
4.732709e-01
4.691262e-01
4.835640e-01
4.815727e-01
4.788022e-01
4.752596e-01
4.707512e-01
4.642065e-01
4.612789e-01
3.536383e-01
3.718793e-01
3.541000e-01
4.009915e-01
3.878250e-01
3.723651e-01
3.546476e-01
4.153434e-01
4.030554e-01
3.894107e-01
3.741510e-01
4.639471e-01
4.692548e-01
4.737988e-01
4.777105e-01
4.818012e-01
4.835073e-01
3.563094e-01
4.831380e-01
4.802676e-01
4.751582e-01
4.676441e-01
4.564881e-01
4.440579e-01
4.298784e-01
4.148708e-01
3.980949e-01
3.749845e-01
3.588790e-01
4.423221e-01
4.299404e-01
4.175265e-01
4.053081e-01
3.923581e-01
3.780816e-01
3.603294e-01
3.531889e-01
4.069519e-01
3.846615e-01
3.656554e-01
4.638624e-01
4.520888e-01
4.417689e-01
4.287409e-01
4.828677e-01
4.798817e-01
4.737987e-01
4.831710e-01
4.790101e-01
4.725937e-01
4.650116e-01
4.532845e-01
4.422361e-01
4.317261e-01
4.178767e-01
4.010308e-01
3.818256e-01
3.603692e-01
3.975397e-01
3.788487e-01
3.578231e-01
4.641827e-01
4.523920e-01
4.412281e-01
4.268699e-01
4.834593e-01
4.809369e-01
4.744319e-01
4.829719e-01
4.780187e-01
4.374691e-01
4.241850e-01
4.127466e-01
4.004194e-01
3.866723e-01
3.713582e-01
3.562541e-01
3.447563e-01
4.720486e-01
4.666662e-01
4.576033e-01
4.412129e-01
4.247004e-01
4.117705e-01
3.955956e-01
3.770843e-01
3.566017e-01
3.948591e-01
3.762017e-01
3.560014e-01
4.673628e-01
4.572748e-01
4.437337e-01
4.284655e-01
4.829298e-01
4.794092e-01
4.737533e-01
4.833492e-01
4.799720e-01
4.739670e-01
4.660150e-01
4.545957e-01
4.426315e-01
4.276197e-01
4.119193e-01
3.944915e-01
3.756817e-01
3.556440e-01
3.940023e-01
4.525696e-01
3.751541e-01
3.553116e-01
4.830359e-01
4.788099e-01
4.725820e-01
4.646544e-01
4.549321e-01
4.443658e-01
4.297479e-01
4.108335e-01
3.930354e-01
3.744094e-01
3.548837e-01
4.613388e-01
4.508985e-01
4.402786e-01
4.258002e-01
4.823262e-01
4.783111e-01
4.711925e-01
4.826973e-01
4.773916e-01
4.213474e-01
4.091491e-01
3.961043e-01
3.836428e-01
3.695006e-01
3.532929e-01
4.701952e-01
4.627600e-01
4.526890e-01
4.388081e-01
4.234039e-01
4.088550e-01
3.917154e-01
3.733980e-01
3.542878e-01
3.902212e-01
3.719867e-01
3.533761e-01
4.824074e-01
4.784985e-01
4.698078e-01
4.821939e-01
4.752219e-01
4.679352e-01
4.592591e-01
4.481795e-01
4.357047e-01
4.216113e-01
4.055427e-01
3.877868e-01
3.696111e-01
3.518146e-01
4.825269e-01
4.784462e-01
4.713509e-01
4.630941e-01
4.512107e-01
4.376308e-01
4.202531e-01
4.032634e-01
3.836134e-01
3.649893e-01
3.501837e-01
4.821452e-01
4.790045e-01
4.718931e-01
4.638176e-01
4.521762e-01
4.384576e-01
4.227499e-01
4.008714e-01
3.845572e-01
3.685229e-01
3.535640e-01
4.824254e-01
4.802348e-01
4.755228e-01
4.657099e-01
4.539079e-01
4.071516e-01
3.911071e-01
3.777556e-01
3.677738e-01
3.522424e-01
4.393407e-01
4.249963e-01
4.103957e-01
3.941817e-01
3.747787e-01
3.560672e-01
3.988036e-01
3.811320e-01
3.584221e-01
4.830642e-01
4.794503e-01
4.732068e-01
4.634651e-01
4.516740e-01
4.395696e-01
4.267301e-01
4.119883e-01
3.951060e-01
3.763429e-01
3.556016e-01
4.621296e-01
4.501201e-01
4.347769e-01
4.205673e-01
4.825193e-01
4.779565e-01
4.705010e-01
4.828951e-01
4.786670e-01
4.715292e-01
4.602133e-01
4.456350e-01
4.341959e-01
4.227429e-01
4.081938e-01
3.917162e-01
3.737178e-01
3.699447e-01
3.555140e-01
3.545073e-01
3.893644e-01
3.720479e-01
3.536946e-01
4.608976e-01
4.467560e-01
4.319542e-01
4.184703e-01
4.824388e-01
4.785966e-01
4.710119e-01
4.828172e-01
4.769706e-01
4.685249e-01
4.589232e-01
4.479261e-01
4.336461e-01
4.166131e-01
4.035181e-01
3.877893e-01
3.706980e-01
3.528839e-01
3.863150e-01
3.693457e-01
3.524426e-01
4.831061e-01
4.799829e-01
4.721515e-01
3.514865e-01
4.826372e-01
4.763081e-01
4.692241e-01
4.624905e-01
4.515023e-01
4.379775e-01
4.203258e-01
4.008299e-01
3.829607e-01
3.692416e-01
3.532755e-01
4.919430e-01
4.917962e-01
4.922127e-01
4.921786e-01
4.922537e-01
4.921920e-01
4.922099e-01
4.922241e-01
4.921727e-01
4.922270e-01
4.921794e-01
4.922307e-01
4.921745e-01
4.922178e-01
4.922042e-01
4.921674e-01
4.922089e-01
4.921760e-01
4.922214e-01
4.922199e-01
4.922079e-01
4.922020e-01
4.922077e-01
4.921341e-01
4.922348e-01
4.922412e-01
4.921747e-01
4.921807e-01
4.921687e-01
4.922532e-01
4.922032e-01
4.922047e-01
-4.625929e-18
3.644700e-01
3.542547e-01
3.388397e-01
3.184745e-01
3.008306e-01
2.823835e-01
2.558611e-01
2.265074e-01
1.953084e-01
1.635914e-01
1.325943e-01
1.094703e-01
8.661036e-02
5.765326e-02
3.636120e-02
1.701586e-02
3.717212e-01
3.563552e-01
3.629408e-01
3.504568e-01
1.621517e-02
5.369964e-02
8.764152e-02
1.241560e-01
1.578346e-01
1.897985e-01
2.206150e-01
2.488697e-01
2.762022e-01
3.037636e-01
3.223581e-01
3.375554e-01
8.095376e-18
0.000000e+00
0.000000e+00
3.331060e-01
3.465170e-01
3.255918e-01
2.953658e-01
2.662482e-01
2.384466e-01
2.085566e-01
1.770753e-01
1.450038e-01
1.077179e-01
7.134457e-02
3.572188e-02
3.717212e-01
1.699544e-02
4.440449e-02
7.712910e-02
1.111268e-01
1.443288e-01
1.736610e-01
2.027059e-01
2.314852e-01
2.530199e-01
2.723196e-01
2.949907e-01
3.164487e-01
3.342325e-01
3.472038e-01
3.566046e-01
3.651577e-01
-4.625929e-18
0.000000e+00
0.000000e+00
8.095376e-18
3.324949e-01
3.109258e-01
2.874811e-01
2.601109e-01
2.266772e-01
1.973643e-01
1.692529e-01
1.372670e-01
1.068779e-01
7.596122e-02
4.347742e-02
1.649689e-02
3.504568e-01
3.629583e-01
3.562663e-01
2.426691e-02
6.045119e-02
9.295625e-02
1.251302e-01
1.564150e-01
1.860081e-01
2.147567e-01
2.483475e-01
2.791166e-01
3.026046e-01
3.234200e-01
3.457078e-01
-1.387779e-17
-1.387779e-17
-1.387779e-17
-1.387779e-17
-1.387779e-17
-1.387779e-17
-1.387779e-17
-1.387779e-17
-1.387779e-17
-1.387779e-17
-1.387779e-17
-1.387779e-17
-1.387779e-17
-1.387779e-17
-1.387779e-17
-1.387779e-17
-1.387779e-17
-1.387779e-17
-1.387779e-17
-1.387779e-17
-1.387779e-17
-1.387779e-17
-1.387779e-17
-1.387779e-17
-1.387779e-17
-1.387779e-17
-1.387779e-17
-1.387779e-17
-1.387779e-17
-1.387779e-17
-1.387779e-17
-1.387779e-17
-1.387779e-17
3.717212e-01
3.717212e-01
3.717212e-01
3.717212e-01
3.717212e-01
3.717212e-01
3.717212e-01
3.717212e-01
3.717212e-01
3.717212e-01
3.717212e-01
3.717212e-01
3.717212e-01
3.717212e-01
3.717212e-01
3.717212e-01
3.717212e-01
3.717212e-01
3.717212e-01
3.717212e-01
3.717212e-01
3.717212e-01
3.717212e-01
3.717212e-01
3.717212e-01
3.717212e-01
3.717212e-01
3.717212e-01
3.717212e-01
3.717212e-01
3.717212e-01
3.717212e-01
3.717212e-01
2.221764e-01
2.385630e-01
2.124930e-01
2.572179e-01
2.330217e-01
2.474274e-01
2.033259e-01
1.956199e-01
2.446382e-01
2.154119e-01
2.310037e-01
2.011574e-01
2.223652e-01
1.969538e-01
3.584496e-01
2.416330e-01
2.176897e-01
1.929918e-01
2.495136e-01
2.357755e-01
2.226677e-01
1.922382e-01
1.539055e-01
2.341676e-01
2.469034e-01
2.221788e-01
1.999121e-01
1.786510e-01
1.367494e-01
1.316538e-01
1.468508e-01
1.275960e-01
1.066569e-01
9.654731e-02
3.496853e-01
3.453008e-01
3.540140e-01
3.609662e-01
3.399693e-01
3.352870e-01
3.267259e-01
3.243389e-01
3.173891e-01
3.108564e-01
3.166446e-01
3.032206e-01
3.040868e-01
2.987233e-01
2.928974e-01
2.894915e-01
2.853785e-01
2.841294e-01
2.791025e-01
2.729703e-01
2.766425e-01
2.697185e-01
2.628988e-01
2.658693e-01
2.571418e-01
2.511774e-01
1.696205e-01
1.717119e-01
3.292318e-01
3.387351e-01
3.479324e-01
3.583399e-01
1.843627e-01
1.968481e-01
2.123917e-01
2.287738e-01
1.924863e-01
2.052624e-01
1.590005e-01
1.629077e-01
1.705183e-01
1.796370e-01
3.386158e-01
3.232786e-01
3.175048e-01
3.017762e-01
2.985837e-01
3.041287e-01
2.736265e-01
2.747662e-01
2.830596e-01
2.895147e-01
2.440876e-01
2.193041e-01
2.491949e-01
2.626925e-01
2.629747e-01
2.752922e-01
4.967504e-02
7.201475e-02
7.307366e-02
9.705506e-02
9.640374e-02
1.190173e-01
1.218991e-01
1.215293e-01
1.450043e-01
3.113669e-01
3.221644e-01
3.325178e-01
3.428653e-01
3.528728e-01
1.407864e-01
1.464337e-01
1.472639e-01
1.901598e-01
1.670181e-01
1.742353e-01
1.711290e-01
1.676078e-01
1.619258e-01
2.618278e-01
2.341256e-01
2.076378e-01
1.800556e-01
1.931128e-01
2.432058e-01
2.167867e-01
3.622130e-01
3.601726e-01
3.512861e-01
3.609452e-01
3.586257e-01
3.470617e-01
3.384349e-01
3.500257e-01
3.424743e-01
3.321229e-01
3.228608e-01
3.596191e-01
3.484273e-01
3.373430e-01
3.269357e-01
3.152304e-01
3.040961e-01
3.616711e-01
3.555901e-01
3.457049e-01
3.345725e-01
3.227341e-01
3.103326e-01
2.958633e-01
2.816739e-01
2.636127e-01
3.596104e-01
3.494289e-01
3.404902e-01
3.312197e-01
3.195489e-01
3.066781e-01
2.928451e-01
2.731356e-01
2.584596e-01
2.473956e-01
2.921624e-01
3.040763e-01
3.154124e-01
3.262413e-01
3.372453e-01
3.492113e-01
3.581228e-01
3.089266e-02
1.924144e-02
5.904263e-02
4.231162e-02
2.295001e-02
8.823303e-02
6.897112e-02
4.884068e-02
2.589374e-02
1.348242e-01
1.154138e-01
9.668371e-02
7.686869e-02
5.473055e-02
2.939757e-02
1.866495e-01
1.613907e-01
1.414156e-01
1.244459e-01
1.060147e-01
8.532522e-02
6.188128e-02
3.436247e-02
1.384899e-01
1.117008e-01
7.358199e-02
4.441997e-02
2.091915e-01
3.227122e-02
1.837587e-01
1.635084e-01
1.518948e-01
1.358875e-01
1.167732e-01
9.567914e-02
7.233693e-02
4.389913e-02
3.610978e-01
3.500658e-01
3.371057e-01
3.225930e-01
3.062518e-01
2.879800e-01
2.678013e-01
2.458999e-01
2.222692e-01
1.960066e-01
1.643252e-01
1.346751e-01
1.039729e-01
7.114164e-02
3.735330e-02
3.605470e-01
2.696083e-01
2.843969e-01
2.970449e-01
3.077656e-01
3.192035e-01
3.309903e-01
3.418434e-01
3.519930e-01
3.483253e-01
3.347186e-01
3.195453e-01
3.026472e-01
2.839041e-01
2.632890e-01
2.407784e-01
2.161971e-01
1.892317e-01
1.602796e-01
1.304640e-01
9.954251e-02
6.742381e-02
3.419340e-02
3.598479e-01
3.469696e-01
3.328018e-01
3.171044e-01
2.997081e-01
2.804984e-01
2.594215e-01
2.364368e-01
2.115113e-01
1.847277e-01
1.564110e-01
1.268838e-01
9.629278e-02
6.478084e-02
3.254807e-02
3.593051e-01
3.459172e-01
3.312757e-01
3.151306e-01
2.973068e-01
2.776955e-01
2.562545e-01
2.329866e-01
2.079521e-01
1.812996e-01
1.532545e-01
1.240394e-01
9.386420e-02
6.294836e-02
3.154895e-02
3.588809e-01
3.450869e-01
3.300560e-01
3.135391e-01
2.953634e-01
2.754325e-01
2.537254e-01
2.302799e-01
2.051937e-01
1.786225e-01
1.507633e-01
1.218270e-01
9.203720e-02
6.162985e-02
3.085950e-02
3.585440e-01
3.444237e-01
3.290766e-01
3.122573e-01
2.937986e-01
2.736174e-01
2.517109e-01
2.281395e-01
2.030177e-01
1.765053e-01
1.487939e-01
1.200941e-01
2.085225e-01
1.882342e-01
1.696395e-01
1.529229e-01
1.342895e-01
1.142754e-01
9.360277e-02
7.184705e-02
4.951006e-02
2.879447e-02
1.354600e-02
9.062927e-02
6.063295e-02
3.034436e-02
3.582692e-01
3.438833e-01
3.282801e-01
3.112150e-01
2.925262e-01
2.721423e-01
2.500761e-01
2.264033e-01
2.012507e-01
1.747827e-01
1.471925e-01
1.186892e-01
8.949305e-02
5.982919e-02
2.992540e-02
3.580337e-01
3.434305e-01
3.276169e-01
3.103439e-01
2.914560e-01
2.708949e-01
2.486870e-01
2.249222e-01
1.997366e-01
1.733017e-01
1.458121e-01
1.174764e-01
8.850847e-02
2.406369e-01
2.630005e-01
2.787903e-01
2.870671e-01
2.988052e-01
3.115033e-01
3.239786e-01
3.352580e-01
3.464851e-01
3.570044e-01
5.912441e-02
2.954262e-02
3.578270e-01
3.430528e-01
3.270462e-01
3.095740e-01
2.904940e-01
2.697599e-01
2.474121e-01
2.235526e-01
1.983285e-01
1.719170e-01
1.445163e-01
1.163338e-01
8.757900e-02
5.845906e-02
2.918607e-02
3.577408e-01
3.427373e-01
3.265069e-01
3.088205e-01
2.895363e-01
2.686172e-01
2.461180e-01
2.221547e-01
1.968837e-01
1.704897e-01
1.431746e-01
1.151477e-01
8.661523e-02
5.777816e-02
2.883683e-02
3.575100e-01
3.423196e-01
3.258918e-01
3.079849e-01
2.884707e-01
2.673400e-01
2.446696e-01
2.205888e-01
1.952629e-01
1.688832e-01
1.416592e-01
1.138036e-01
8.552230e-02
5.700928e-02
2.844890e-02
3.572217e-01
3.418660e-01
3.251860e-01
3.069800e-01
2.871732e-01
2.657922e-01
2.429288e-01
2.187179e-01
1.933289e-01
1.669631e-01
1.398414e-01
1.121844e-01
8.419608e-02
5.606371e-02
2.795949e-02
3.572111e-01
3.414195e-01
3.242750e-01
3.056423e-01
2.854828e-01
2.638278e-01
2.407624e-01
2.164106e-01
1.909485e-01
1.645953e-01
1.375929e-01
1.604989e-01
1.433602e-01
1.258910e-01
1.073890e-01
8.829795e-02
6.922378e-02
4.761917e-02
2.491755e-02
1.101711e-01
8.252836e-02
5.484349e-02
2.729866e-02
3.567531e-01
3.404497e-01
3.227994e-01
3.037217e-01
2.832229e-01
2.613246e-01
2.380595e-01
2.135443e-01
1.879874e-01
1.616453e-01
1.347888e-01
1.076475e-01
8.040862e-02
5.324740e-02
2.641335e-02
3.557674e-01
3.387371e-01
3.205083e-01
3.010240e-01
2.803169e-01
2.582504e-01
2.347377e-01
2.099816e-01
1.842965e-01
1.579844e-01
1.313266e-01
1.044901e-01
7.769515e-02
1.779954e-01
5.115689e-02
2.531505e-02
3.544743e-01
3.359350e-01
3.170505e-01
2.974865e-01
2.769998e-01
2.546868e-01
2.306623e-01
2.054906e-01
1.796891e-01
1.535488e-01
1.272192e-01
1.004650e-01
7.402308e-02
4.848676e-02
2.441021e-02
3.527059e-01
3.378847e-01
3.164233e-01
2.923639e-01
3.519690e-01
3.298164e-01
3.116880e-01
2.945259e-01
2.738833e-01
2.505871e-01
2.254368e-01
1.995502e-01
1.739216e-01
1.486834e-01
1.230538e-01
9.436628e-02
6.762066e-02
4.736042e-02
2.513185e-02
2.132122e-02
2.621724e-02
4.457890e-02
2.094783e-02
1.486620e-01
1.330848e-01
1.164561e-01
9.893667e-02
8.073231e-02
6.266585e-02
4.736249e-02
2.354525e-02
3.509295e-02
5.315529e-02
6.974463e-02
2.611624e-02
4.543690e-02
6.261467e-02
7.968702e-02
9.574111e-02
3.480688e-02
5.371645e-02
7.203227e-02
8.954227e-02
1.062396e-01
1.213432e-01
3.504568e-01
3.504568e-01
3.504568e-01
3.504568e-01
3.504568e-01
3.504568e-01
3.504568e-01
3.504568e-01
3.504568e-01
3.504568e-01
3.504568e-01
3.504568e-01
3.504568e-01
3.504568e-01
3.504568e-01
3.504568e-01
3.504568e-01
3.504568e-01
3.504568e-01
3.504568e-01
3.504568e-01
3.504568e-01
3.504568e-01
3.504568e-01
3.504568e-01
3.504568e-01
3.504568e-01
3.504568e-01
3.504568e-01
3.504568e-01
3.504568e-01
3.504568e-01
3.504568e-01
3.574575e-01
3.645208e-01
3.613297e-01
3.574235e-01
3.647222e-01
3.574473e-01
3.647266e-01
3.574494e-01
3.647242e-01
3.574256e-01
3.645605e-01
3.611706e-01
3.601945e-01
3.574447e-01
3.647848e-01
3.574038e-01
3.647687e-01
3.574136e-01
3.646579e-01
3.635958e-01
3.576643e-01
3.643982e-01
3.574895e-01
3.647811e-01
3.571839e-01
3.643555e-01
3.574635e-01
3.650498e-01
3.575607e-01
3.645558e-01
3.575182e-01
3.647249e-01
3.574164e-01
3.646567e-01
3.574484e-01
3.647274e-01
3.574479e-01
3.647264e-01
3.574533e-01
3.647198e-01
3.574687e-01
3.647051e-01
3.574318e-01
3.652588e-01
3.574293e-01
3.643583e-01
3.575915e-01
3.652131e-01
3.573245e-01
3.648378e-01
3.573587e-01
3.646012e-01
3.648049e-01
3.574507e-01
3.578270e-01
3.649434e-01
3.574761e-01
3.647219e-01
3.574238e-01
3.647770e-01
2.428613e-17
-3.122502e-17
2.428613e-17
-3.122502e-17
2.428613e-17
-3.122502e-17
2.428613e-17
-3.122502e-17
2.428613e-17
-3.122502e-17
2.428613e-17
-3.122502e-17
2.428613e-17
-3.122502e-17
2.428613e-17
-3.122502e-17
2.428613e-17
-3.122502e-17
2.428613e-17
-3.122502e-17
2.428613e-17
-3.122502e-17
2.428613e-17
-3.122502e-17
2.428613e-17
-3.122502e-17
2.428613e-17
-3.122502e-17
2.428613e-17
-3.122502e-17
2.428613e-17
-3.122502e-17
2.428613e-17
1.685770e-01
2.260249e-01
2.218524e-01
1.848762e-01
1.990038e-01
1.681125e-01
5.744659e-02
2.793906e-01
1.410655e-01
8.273726e-02
8.648943e-02
1.112034e-01
1.018249e-01
1.288050e-01
1.454885e-01
1.242602e-01
1.419803e-01
1.618749e-01
1.670351e-01
1.769284e-01
1.706925e-01
1.930736e-01
3.715527e-02
2.414172e-02
2.005503e-01
1.964499e-01
1.966211e-01
2.019153e-01
2.435178e-01
2.188428e-01
2.363395e-01
2.572343e-01
2.505268e-01
2.618935e-01
2.866556e-01
1.861093e-01
2.098872e-01
2.354655e-01
2.516042e-01
2.551127e-01
2.549001e-01
2.612403e-01
1.619832e-01
1.936608e-01
2.191920e-01
1.937230e-01
2.183087e-01
2.451765e-01
2.652465e-01
7.033254e-02
5.217942e-02
3.027686e-02
2.685129e-01
3.109258e-01
2.911865e-01
2.894119e-01
2.473754e-01
2.633214e-01
2.673553e-01
2.246084e-01
2.304220e-01
2.390282e-01
2.466295e-01
1.979292e-01
2.067023e-01
2.175769e-01
2.274012e-01
4.545532e-02
7.062353e-02
1.194173e-01
1.172973e-01
1.658987e-01
1.678879e-01
1.490533e-01
1.353546e-01
2.108793e-01
1.852503e-01
1.537873e-01
2.166137e-02
2.144647e-02
2.053575e-02
2.108959e-02
2.217707e-02
2.110673e-02
2.212795e-02
2.300806e-02
1.047816e-01
8.578325e-02
6.570204e-02
4.306324e-02
2.483290e-02
1.855990e-02
1.539475e-02
1.903496e-02
1.734303e-02
2.349200e-02
6.274043e-02
3.328718e-02
3.673244e-02
5.261022e-02
7.144106e-02
9.047160e-02
2.361765e-02
4.264593e-02
6.407328e-02
8.336586e-02
1.032375e-01
1.206814e-01
2.844658e-02
5.225997e-02
7.342921e-02
9.365700e-02
1.141781e-01
1.384039e-01
1.478688e-01
3.310337e-01
3.104016e-01
3.305398e-01
2.717520e-01
2.902328e-01
3.098187e-01
3.299522e-01
2.492654e-01
2.686814e-01
2.881019e-01
3.076596e-01
1.392712e-01
1.201803e-01
1.007874e-01
8.022477e-02
5.010919e-02
2.939471e-02
3.281570e-01
3.494385e-02
6.313805e-02
9.417027e-02
1.263025e-01
1.620555e-01
1.935355e-01
2.232665e-01
2.500512e-01
2.759779e-01
3.066431e-01
3.253448e-01
1.974704e-01
2.231470e-01
2.455912e-01
2.652710e-01
2.840748e-01
3.028162e-01
3.237377e-01
3.315132e-01
2.627423e-01
2.944129e-01
3.177098e-01
1.395530e-01
1.739515e-01
1.987048e-01
2.254431e-01
3.849886e-02
6.600721e-02
1.007877e-01
3.448384e-02
7.206036e-02
1.062947e-01
1.356745e-01
1.708112e-01
1.976628e-01
2.196723e-01
2.449947e-01
2.716941e-01
2.980815e-01
3.236934e-01
2.767770e-01
3.018560e-01
3.265058e-01
1.384838e-01
1.731613e-01
1.999028e-01
2.289660e-01
3.017461e-02
5.781931e-02
9.776356e-02
3.716901e-02
7.836790e-02
2.080003e-01
2.339027e-01
2.535421e-01
2.725944e-01
2.917669e-01
3.110249e-01
3.282169e-01
3.402741e-01
1.086900e-01
1.298694e-01
1.588790e-01
1.999363e-01
2.329656e-01
2.551243e-01
2.795487e-01
3.040572e-01
3.278393e-01
2.805880e-01
3.051486e-01
3.284910e-01
1.273394e-01
1.598223e-01
1.942775e-01
2.259662e-01
3.771153e-02
6.935566e-02
1.010009e-01
3.188954e-02
6.534737e-02
9.999301e-02
1.321870e-01
1.672905e-01
1.967758e-01
2.275627e-01
2.548841e-01
2.811047e-01
3.057885e-01
3.288780e-01
2.817899e-01
1.726967e-01
3.064356e-01
3.292371e-01
3.632759e-02
7.337886e-02
1.063465e-01
1.368929e-01
1.663736e-01
1.928273e-01
2.235176e-01
2.566305e-01
2.831369e-01
3.073451e-01
3.296982e-01
1.476818e-01
1.770139e-01
2.019855e-01