VARIABLES = "X" "Y" "Z" "FREF"
ZONE T="instant 103"
Nodes=1235, Elements=2466
ZONETYPE=FETriangle
DATAPACKING=BLOCK
VARLOCATION = ([1-3]=NODAL, [4]=CELLCENTERED)
5.000000e-01
3.078529e-01
3.260850e-01
3.472704e-01
3.685066e-01
3.868554e-01
4.038833e-01
4.229053e-01
4.409411e-01
4.566120e-01
4.693058e-01
4.792079e-01
4.862354e-01
4.917084e-01
4.960150e-01
4.984509e-01
4.996800e-01
2.928000e-01
2.928000e-01
2.928000e-01
2.928000e-01
4.421948e-01
4.395694e-01
4.345123e-01
4.269703e-01
4.170601e-01
4.048494e-01
3.905688e-01
3.750164e-01
3.577665e-01
3.392105e-01
3.217321e-01
3.055397e-01
4.428000e-01
4.800970e-01
4.579164e-01
3.223670e-01
3.175016e-01
3.438428e-01
3.686231e-01
3.893587e-01
4.071337e-01
4.228724e-01
4.364794e-01
4.480884e-01
4.600822e-01
4.655631e-01
4.727110e-01
2.928000e-01
4.995421e-01
4.975491e-01
4.935243e-01
4.869335e-01
4.779786e-01
4.683013e-01
4.563319e-01
4.418618e-01
4.275005e-01
4.128508e-01
3.946968e-01
3.741196e-01
3.537165e-01
3.362214e-01
3.197169e-01
3.053077e-01
5.000000e-01
4.600889e-01
4.810630e-01
4.428000e-01
3.077915e-01
3.260206e-01
3.466901e-01
3.675946e-01
3.863425e-01
4.004527e-01
4.120628e-01
4.227505e-01
4.304590e-01
4.362587e-01
4.402900e-01
4.423361e-01
2.928000e-01
2.928000e-01
2.928000e-01
4.697963e-01
4.665374e-01
4.613735e-01
4.541059e-01
4.447072e-01
4.336867e-01
4.203901e-01
4.037985e-01
3.810395e-01
3.605350e-01
3.398624e-01
3.178550e-01
5.000000e-01
5.000000e-01
5.000000e-01
5.000000e-01
5.000000e-01
5.000000e-01
5.000000e-01
5.000000e-01
5.000000e-01
5.000000e-01
5.000000e-01
5.000000e-01
5.000000e-01
5.000000e-01
5.000000e-01
5.000000e-01
5.000000e-01
5.000000e-01
5.000000e-01
5.000000e-01
5.000000e-01
5.000000e-01
5.000000e-01
5.000000e-01
5.000000e-01
5.000000e-01
5.000000e-01
5.000000e-01
5.000000e-01
5.000000e-01
5.000000e-01
5.000000e-01
5.000000e-01
2.928000e-01
2.928000e-01
2.928000e-01
2.928000e-01
2.928000e-01
2.928000e-01
2.928000e-01
2.928000e-01
2.928000e-01
2.928000e-01
2.928000e-01
2.928000e-01
2.928000e-01
2.928000e-01
2.928000e-01
2.928000e-01
2.928000e-01
2.928000e-01
2.928000e-01
2.928000e-01
2.928000e-01
2.928000e-01
2.928000e-01
2.928000e-01
2.928000e-01
2.928000e-01
2.928000e-01
2.928000e-01
2.928000e-01
2.928000e-01
2.928000e-01
2.928000e-01
2.928000e-01
4.500232e-01
4.413166e-01
4.461266e-01
4.268434e-01
4.426567e-01
4.347131e-01
4.583491e-01
4.631459e-01
4.383329e-01
4.543825e-01
4.473094e-01
4.501607e-01
4.392348e-01
4.530269e-01
3.162446e-01
4.278790e-01
4.427157e-01
4.556559e-01
4.239045e-01
4.326704e-01
4.408556e-01
4.565568e-01
4.793724e-01
4.404789e-01
4.334192e-01
4.481515e-01
4.592116e-01
4.683307e-01
4.839616e-01
4.848529e-01
4.805183e-01
4.863085e-01
4.903416e-01
4.923598e-01
3.285634e-01
3.344580e-01
3.203512e-01
3.083793e-01
3.436983e-01
3.491918e-01
3.618970e-01
3.645170e-01
3.742102e-01
3.821115e-01
3.740366e-01
3.881253e-01
3.884452e-01
3.954861e-01
4.014183e-01
4.012732e-01
4.059812e-01
4.091412e-01
4.139904e-01
4.191024e-01
4.120226e-01
4.184848e-01
4.252687e-01
4.241675e-01
4.307150e-01
4.350827e-01
4.726874e-01
4.727317e-01
3.546358e-01
3.407978e-01
3.271761e-01
3.128766e-01
4.683822e-01
4.640255e-01
4.573002e-01
4.487175e-01
4.660643e-01
4.603939e-01
4.772588e-01
4.763299e-01
4.742059e-01
4.708524e-01
3.352292e-01
3.550544e-01
3.623279e-01
3.771752e-01
3.821013e-01
3.765507e-01
4.026044e-01
4.032149e-01
3.964932e-01
3.908999e-01
4.244193e-01
4.399120e-01
4.221219e-01
4.130202e-01
4.133014e-01
4.042011e-01
4.969779e-01
4.935883e-01
4.935408e-01
4.884978e-01
4.889276e-01
4.833724e-01
4.817098e-01
4.822412e-01
4.750710e-01
3.745075e-01
3.611542e-01
3.475963e-01
3.340901e-01
3.213343e-01
4.769613e-01
4.734448e-01
4.736950e-01
4.550046e-01
4.652900e-01
4.627520e-01
4.649102e-01
4.669733e-01
4.696628e-01
4.154907e-01
4.344648e-01
4.494619e-01
4.624211e-01
4.567133e-01
4.287062e-01
4.447684e-01
3.081891e-01
3.107252e-01
3.250675e-01
3.108886e-01
3.139061e-01
3.302071e-01
3.434619e-01
3.270178e-01
3.373532e-01
3.507440e-01
3.634598e-01
3.135463e-01
3.302799e-01
3.448007e-01
3.580027e-01
3.715740e-01
3.843589e-01
3.083563e-01
3.199841e-01
3.354165e-01
3.502589e-01
3.644185e-01
3.781939e-01
3.925202e-01
4.063434e-01
4.205692e-01
3.128734e-01
3.274829e-01
3.423674e-01
3.560872e-01
3.697400e-01
3.835955e-01
3.970589e-01
4.138708e-01
4.248061e-01
4.319509e-01
3.930236e-01
3.804803e-01
3.677720e-01
3.547490e-01
3.409998e-01
3.254938e-01
3.118351e-01
4.989012e-01
4.996011e-01
4.962584e-01
4.981251e-01
4.994647e-01
4.920368e-01
4.952192e-01
4.976542e-01
4.993532e-01
4.815212e-01
4.867239e-01
4.908721e-01
4.943692e-01
4.972208e-01
4.992194e-01
4.639034e-01
4.735451e-01
4.802706e-01
4.850810e-01
4.894847e-01
4.933992e-01
4.966327e-01
4.989902e-01
4.835063e-01
4.896374e-01
4.955724e-01
4.984190e-01
4.541084e-01
4.991555e-01
4.658182e-01
4.734709e-01
4.776654e-01
4.827631e-01
4.877533e-01
4.920242e-01
4.955975e-01
4.983964e-01
3.102017e-01
3.288519e-01
3.481586e-01
3.679008e-01
3.874168e-01
4.058912e-01
4.228645e-01
4.381181e-01
4.516490e-01
4.639334e-01
4.757657e-01
4.841792e-01
4.908351e-01
4.957734e-01
4.988685e-01
3.117197e-01
4.112548e-01
3.983876e-01
3.865763e-01
3.751362e-01
3.621292e-01
3.479592e-01
3.340153e-01
3.212937e-01
3.312221e-01
3.514159e-01
3.715404e-01
3.908644e-01
4.089183e-01
4.254856e-01
4.404701e-01
4.539498e-01
4.660225e-01
4.764382e-01
4.848092e-01
4.913570e-01
4.960996e-01
4.990131e-01
3.126587e-01
3.328875e-01
3.534682e-01
3.737468e-01
3.929498e-01
4.108136e-01
4.271766e-01
4.420138e-01
4.553166e-01
4.670398e-01
4.770393e-01
4.852432e-01
4.916565e-01
4.962741e-01
4.990669e-01
3.132291e-01
3.338386e-01
3.546477e-01
3.749491e-01
3.941154e-01
4.118749e-01
4.281451e-01
4.428761e-01
4.560395e-01
4.675706e-01
4.774030e-01
4.854908e-01
4.918166e-01
4.963552e-01
4.990889e-01
3.135191e-01
3.343310e-01
3.552197e-01
3.755520e-01
3.946817e-01
4.124064e-01
4.286245e-01
4.432992e-01
4.563833e-01
4.678288e-01
4.775831e-01
4.856137e-01
4.918897e-01
4.963907e-01
4.990973e-01
3.136551e-01
3.345410e-01
3.554767e-01
3.758039e-01
3.949295e-01
4.126329e-01
4.288325e-01
4.434786e-01
4.565294e-01
4.679370e-01
4.776608e-01
4.856641e-01
4.498407e-01
4.591534e-01
4.667714e-01
4.730986e-01
4.792965e-01
4.849578e-01
4.898128e-01
4.939071e-01
4.970711e-01
4.990115e-01
4.997776e-01
4.919198e-01
4.964041e-01
4.991006e-01
3.137096e-01
3.346278e-01
3.555682e-01
3.759009e-01
3.950184e-01
4.127180e-01
4.289087e-01
4.435449e-01
4.565820e-01
4.679769e-01
4.776883e-01
4.856825e-01
4.919304e-01
4.964091e-01
4.991022e-01
3.137361e-01
3.346540e-01
3.556000e-01
3.759284e-01
3.950476e-01
4.127442e-01
4.289330e-01
4.435655e-01
4.565986e-01
4.679889e-01
4.776970e-01
4.856882e-01
4.919338e-01
4.310549e-01
4.149196e-01
4.024942e-01
3.948060e-01
3.831223e-01
3.696017e-01
3.553991e-01
3.421281e-01
3.270518e-01
3.119550e-01
4.964113e-01
4.991029e-01
3.137387e-01
3.346580e-01
3.556030e-01
3.759398e-01
3.950559e-01
4.127534e-01
4.289405e-01
4.435720e-01
4.566036e-01
4.679928e-01
4.776997e-01
4.856900e-01
4.919351e-01
4.964116e-01
4.991029e-01
3.136869e-01
3.346504e-01
3.556210e-01
3.759514e-01
3.950709e-01
4.127636e-01
4.289497e-01
4.435790e-01
4.566096e-01
4.679975e-01
4.777036e-01
4.856927e-01
4.919364e-01
4.964118e-01
4.991024e-01
3.137850e-01
3.347302e-01
3.556689e-01
3.760045e-01
3.951125e-01
4.128014e-01
4.289789e-01
4.436043e-01
4.566302e-01
4.680158e-01
4.777178e-01
4.857037e-01
4.919431e-01
4.964146e-01
4.991029e-01
3.138732e-01
3.348061e-01
3.557974e-01
3.761403e-01
3.952476e-01
4.129133e-01
4.290753e-01
4.436842e-01
4.567016e-01
4.680747e-01
4.777678e-01
4.857402e-01
4.919686e-01
4.964282e-01
4.991068e-01
3.138017e-01
3.349981e-01
3.561253e-01
3.765203e-01
3.955908e-01
4.132110e-01
4.293259e-01
4.439082e-01
4.568940e-01
4.682442e-01
4.779027e-01
4.703915e-01
4.763732e-01
4.818642e-01
4.868443e-01
4.910915e-01
4.944768e-01
4.973428e-01
4.992586e-01
4.858458e-01
4.920392e-01
4.964684e-01
4.991194e-01
3.141587e-01
3.356729e-01
3.569977e-01
3.773808e-01
3.963496e-01
4.138490e-01
4.298959e-01
4.444155e-01
4.573526e-01
4.686316e-01
4.782241e-01
4.860862e-01
4.922061e-01
4.965600e-01
4.991468e-01
3.150828e-01
3.372607e-01
3.588049e-01
3.790354e-01
3.976998e-01
4.150203e-01
4.309807e-01
4.454377e-01
4.582554e-01
4.694072e-01
4.788432e-01
4.865711e-01
4.925339e-01
4.637220e-01
4.967371e-01
4.991929e-01
3.168176e-01
3.405477e-01
3.621077e-01
3.815774e-01
3.996239e-01
4.168427e-01
4.328599e-01
4.472264e-01
4.598286e-01
4.706860e-01
4.798605e-01
4.874192e-01
4.931293e-01
4.970185e-01
4.992392e-01
3.185018e-01
3.366384e-01
3.616183e-01
3.860873e-01
3.204919e-01
3.477270e-01
3.671671e-01
3.838481e-01
4.017916e-01
4.195462e-01
4.358745e-01
4.501309e-01
4.622072e-01
4.723986e-01
4.811239e-01
4.889353e-01
4.942690e-01
4.971786e-01
4.992168e-01
4.994727e-01
4.991893e-01
4.976919e-01
4.995069e-01
4.745591e-01
4.796286e-01
4.844466e-01
4.888434e-01
4.926020e-01
4.955389e-01
4.974272e-01
4.993698e-01
4.985684e-01
4.967323e-01
4.944099e-01
4.992228e-01
4.976633e-01
4.955061e-01
4.926990e-01
4.895013e-01
4.986192e-01
4.967307e-01
4.941046e-01
4.908184e-01
4.870223e-01
4.829985e-01
2.928000e-01
2.928000e-01
2.928000e-01
2.928000e-01
2.928000e-01
2.928000e-01
2.928000e-01
2.928000e-01
2.928000e-01
2.928000e-01
2.928000e-01
2.928000e-01
2.928000e-01
2.928000e-01
2.928000e-01
2.928000e-01
2.928000e-01
2.928000e-01
2.928000e-01
2.928000e-01
2.928000e-01
2.928000e-01
2.928000e-01
2.928000e-01
2.928000e-01
2.928000e-01
2.928000e-01
2.928000e-01
2.928000e-01
2.928000e-01
2.928000e-01
2.928000e-01
2.928000e-01
2.928000e-01
2.928000e-01
2.928000e-01
2.928000e-01
2.928000e-01
2.928000e-01
2.928000e-01
2.928000e-01
2.928000e-01
2.928000e-01
2.928000e-01
2.928000e-01
2.928000e-01
2.928000e-01
2.928000e-01
2.928000e-01
2.928000e-01
2.928000e-01
2.928000e-01
2.928000e-01
2.928000e-01
2.928000e-01
2.928000e-01
2.928000e-01
2.928000e-01
2.928000e-01
2.928000e-01
2.928000e-01
2.928000e-01
2.928000e-01
2.928000e-01
2.928000e-01
2.928000e-01
2.928000e-01
2.928000e-01
2.928000e-01
2.928000e-01
2.928000e-01
2.928000e-01
2.928000e-01
2.928000e-01
2.928000e-01
2.928000e-01
2.928000e-01
2.928000e-01
2.928000e-01
2.928000e-01
2.928000e-01
2.928000e-01
2.928000e-01
2.928000e-01
2.928000e-01
2.928000e-01
2.928000e-01
2.928000e-01
2.928000e-01
2.928000e-01
2.928000e-01
2.928000e-01
2.928000e-01
4.428000e-01
4.428000e-01
4.428000e-01
4.428000e-01
4.428000e-01
4.428000e-01
4.428000e-01
4.428000e-01
4.428000e-01
4.428000e-01
4.428000e-01
4.428000e-01
4.428000e-01
4.428000e-01
4.428000e-01
4.428000e-01
4.428000e-01
4.428000e-01
4.428000e-01
4.428000e-01
4.428000e-01
4.428000e-01
4.428000e-01
4.428000e-01
4.428000e-01
4.428000e-01
4.428000e-01
4.428000e-01
4.428000e-01
4.428000e-01
4.428000e-01
4.428000e-01
4.428000e-01
4.111136e-01
3.856079e-01
3.878779e-01
4.087290e-01
4.025290e-01
4.144697e-01
4.390075e-01
3.526235e-01
4.241730e-01
4.349682e-01
4.342435e-01
4.287327e-01
4.309959e-01
4.240343e-01
4.190722e-01
4.253290e-01
4.201818e-01
4.134515e-01
4.115319e-01
4.078797e-01
4.107024e-01
4.008699e-01
4.412085e-01
4.421653e-01
3.976389e-01
3.999023e-01
3.998973e-01
3.968629e-01
3.759061e-01
3.883806e-01
3.797112e-01
3.675410e-01
3.709997e-01
3.644120e-01
3.472122e-01
4.044115e-01
3.932948e-01
3.798176e-01
3.711064e-01
3.698899e-01
3.709983e-01
3.687681e-01
4.169219e-01
4.051052e-01
3.934088e-01
4.052063e-01
3.939178e-01
3.794628e-01
3.683056e-01
4.374933e-01
4.398562e-01
4.418008e-01
3.665002e-01
3.319269e-01
3.490162e-01
3.498751e-01
3.797248e-01
3.692426e-01
3.658205e-01
3.924351e-01
3.891237e-01
3.836478e-01
3.786318e-01
4.046231e-01
4.002283e-01
3.944383e-01
3.889424e-01
4.406367e-01
4.375857e-01
4.291260e-01
4.292285e-01
4.164719e-01
4.156021e-01
4.208107e-01
4.245224e-01
3.968400e-01
4.078813e-01
4.189195e-01
4.423203e-01
4.423425e-01
4.423729e-01
4.423337e-01
4.422699e-01
4.423241e-01
4.422755e-01
4.422663e-01
4.314388e-01
4.351893e-01
4.383178e-01
4.408561e-01
4.421536e-01
4.424241e-01
4.425298e-01
4.423808e-01
4.424546e-01
4.421730e-01
4.382005e-01
4.414281e-01
4.412262e-01
4.396368e-01
4.369535e-01
4.335959e-01
4.421764e-01
4.407064e-01
4.380921e-01
4.348971e-01
4.308118e-01
4.267952e-01
4.418681e-01
4.396740e-01
4.366248e-01
4.328181e-01
4.280925e-01
4.214969e-01
4.188990e-01
3.104593e-01
3.283095e-01
3.114006e-01
3.584346e-01
3.446581e-01
3.292472e-01
3.121647e-01
3.731049e-01
3.602126e-01
3.463137e-01
3.312227e-01
4.230019e-01
4.281670e-01
4.325668e-01
4.361736e-01
4.401322e-01
4.418790e-01
3.139248e-01
4.413942e-01
4.382521e-01
4.327337e-01
4.248411e-01
4.137447e-01
4.008928e-01
3.862150e-01
3.711501e-01
3.542711e-01
3.320644e-01
3.159739e-01
3.998651e-01
3.874001e-01
3.747791e-01
3.623024e-01
3.493661e-01
3.350865e-01
3.181720e-01
3.107747e-01
3.631674e-01
3.410724e-01
3.219763e-01
4.213157e-01
4.097523e-01
3.993178e-01
3.862498e-01
4.410854e-01
4.378884e-01
4.314121e-01
4.414509e-01
4.369205e-01
4.301103e-01
4.223576e-01
4.109059e-01
3.995384e-01
3.887410e-01
3.746427e-01
3.575405e-01
3.383721e-01
3.169877e-01
3.544926e-01
3.357090e-01
3.149791e-01
4.221128e-01
4.102194e-01
3.993249e-01
3.850249e-01
4.417450e-01
4.390271e-01
4.323711e-01
4.412236e-01
4.359861e-01
3.976240e-01
3.850098e-01
3.739333e-01
3.616843e-01
3.476279e-01
3.315660e-01
3.155979e-01
3.035162e-01
4.297292e-01
4.243817e-01
4.151323e-01
3.990894e-01
3.825860e-01
3.694246e-01
3.530369e-01
3.344200e-01
3.141796e-01
3.528178e-01
3.340094e-01
3.139266e-01
4.255246e-01
4.154084e-01
4.024399e-01
3.872685e-01
4.412122e-01
4.376263e-01
4.319276e-01
4.416606e-01
4.380590e-01
4.318933e-01
4.239311e-01
4.126478e-01
4.010841e-01
3.860406e-01
3.704798e-01
3.529453e-01
3.339403e-01
3.138430e-01
3.529693e-01
4.121552e-01
3.338290e-01
3.137637e-01
4.414004e-01
4.372369e-01
4.310842e-01
4.231672e-01
4.137256e-01
4.035682e-01
3.890240e-01
3.704426e-01
3.525276e-01
3.335123e-01
3.135628e-01
4.208970e-01
4.110225e-01
4.008201e-01
3.864233e-01
4.407466e-01
4.369995e-01
4.301959e-01
4.411251e-01
4.360345e-01
3.815243e-01
3.698445e-01
3.568410e-01
3.441032e-01
3.294785e-01
3.125117e-01
4.289953e-01
4.218283e-01
4.121617e-01
3.987683e-01
3.834779e-01
3.691346e-01
3.517771e-01
3.329064e-01
3.131611e-01
3.507628e-01
3.317962e-01
3.123518e-01
4.407904e-01
4.370105e-01
4.289879e-01
4.406399e-01
4.341968e-01
4.273134e-01
4.193653e-01
4.089108e-01
3.967552e-01
3.828300e-01
3.668831e-01
3.486621e-01
3.295610e-01
3.107391e-01
4.408605e-01
4.368716e-01
4.303707e-01
4.225758e-01
4.118172e-01
3.988915e-01
3.819178e-01
3.649381e-01
3.444696e-01
3.249429e-01
3.093650e-01
4.404565e-01
4.373184e-01
4.308838e-01
4.232910e-01
4.126207e-01
3.996045e-01
3.840889e-01
3.623661e-01
3.455645e-01
3.287020e-01
3.129610e-01
4.407626e-01
4.386286e-01
4.339905e-01
4.251612e-01
4.144766e-01
3.672988e-01
3.515549e-01
3.378956e-01
3.274819e-01
3.113710e-01
4.005448e-01
3.865293e-01
3.719621e-01
3.556809e-01
3.355977e-01
3.156142e-01
3.604520e-01
3.423462e-01
3.190558e-01
4.414822e-01
4.379808e-01
4.320612e-01
4.233768e-01
4.128526e-01
4.013233e-01
3.886599e-01
3.740176e-01
3.569957e-01
3.375848e-01
3.157321e-01
4.225992e-01
4.115799e-01
3.975196e-01
3.837138e-01
4.409643e-01
4.368387e-01
4.301615e-01
4.413568e-01
4.373440e-01
4.307746e-01
4.206923e-01
4.076260e-01
3.964787e-01
3.852630e-01
3.707423e-01
3.538507e-01
3.349295e-01
3.300863e-01
3.147355e-01
3.144101e-01
3.517423e-01
3.333035e-01
3.135444e-01
4.216128e-01
4.090964e-01
3.952321e-01
3.820078e-01
4.409170e-01
4.375004e-01
4.306917e-01
4.412208e-01
4.360900e-01
4.286158e-01
4.201395e-01
4.099151e-01
3.965665e-01
3.801122e-01
3.668033e-01
3.503242e-01
3.319996e-01
3.127624e-01
3.487691e-01
3.305346e-01
3.122473e-01
4.415241e-01
4.384439e-01
4.319175e-01
3.105549e-01
4.410741e-01
4.355432e-01
4.292104e-01
4.232940e-01
4.132367e-01
4.008325e-01
3.837372e-01
3.637689e-01
3.449807e-01
3.301285e-01
3.127097e-01
4.676898e-01
4.733297e-01
4.714829e-01
4.713173e-01
4.714318e-01
4.713782e-01
4.713969e-01
4.713783e-01
4.712098e-01
4.712638e-01
4.711828e-01
4.712492e-01
4.711530e-01
4.712318e-01
4.711853e-01
4.710767e-01
4.711774e-01
4.711730e-01
4.712913e-01
4.713111e-01
4.712625e-01
4.712069e-01
4.711356e-01
4.710194e-01
4.708590e-01
4.712176e-01
4.710764e-01
4.711013e-01
4.711113e-01
4.713532e-01
4.712640e-01
4.711847e-01
-4.625929e-18
3.939881e-01
3.790364e-01
3.597267e-01
3.379392e-01
3.167695e-01
2.947513e-01
2.667417e-01
2.357350e-01
2.037290e-01
1.724878e-01
1.426878e-01
1.165125e-01
9.067975e-02
6.300063e-02
3.932868e-02
1.788439e-02
4.053001e-01
3.538455e-01
3.799125e-01
3.321747e-01
2.314328e-02
5.339053e-02
8.526966e-02
1.173379e-01
1.487707e-01
1.793567e-01
2.086333e-01
2.354454e-01
2.609118e-01
2.846191e-01
3.042373e-01
3.204954e-01
-5.782412e-18
0.000000e+00
0.000000e+00
3.239076e-01
3.479144e-01
3.227448e-01
2.964261e-01
2.649830e-01
2.363872e-01
2.067119e-01
1.760908e-01
1.446694e-01
1.098358e-01
7.336735e-02
3.807099e-02
4.053001e-01
2.139343e-02
4.944558e-02
8.021078e-02
1.135597e-01
1.467531e-01
1.751968e-01
2.043556e-01
2.340046e-01
2.593131e-01
2.820536e-01
3.069437e-01
3.317145e-01
3.533902e-01
3.700746e-01
3.844231e-01
3.959636e-01
-4.625929e-18
0.000000e+00
0.000000e+00
-5.782412e-18
3.183335e-01
2.996371e-01
2.754592e-01
2.468725e-01
2.163592e-01
1.889694e-01
1.620991e-01
1.317340e-01
1.038117e-01
7.582970e-02
4.708066e-02
2.026259e-02
3.321747e-01
3.812744e-01
3.547174e-01
2.916716e-02
6.261906e-02
9.361386e-02
1.240519e-01
1.537438e-01
1.829191e-01
2.121883e-01
2.458827e-01
2.764384e-01
3.026413e-01
3.263284e-01
3.516442e-01
-1.387779e-17
-1.387779e-17
-1.387779e-17
-1.387779e-17
-1.387779e-17
-1.387779e-17
-1.387779e-17
-1.387779e-17
-1.387779e-17
-1.387779e-17
-1.387779e-17
-1.387779e-17
-1.387779e-17
-1.387779e-17
-1.387779e-17
-1.387779e-17
-1.387779e-17
-1.387779e-17
-1.387779e-17
-1.387779e-17
-1.387779e-17
-1.387779e-17
-1.387779e-17
-1.387779e-17
-1.387779e-17
-1.387779e-17
-1.387779e-17
-1.387779e-17
-1.387779e-17
-1.387779e-17
-1.387779e-17
-1.387779e-17
-1.387779e-17
4.053001e-01
4.053001e-01
4.053001e-01
4.053001e-01
4.053001e-01
4.053001e-01
4.053001e-01
4.053001e-01
4.053001e-01
4.053001e-01
4.053001e-01
4.053001e-01
4.053001e-01
4.053001e-01
4.053001e-01
4.053001e-01
4.053001e-01
4.053001e-01
4.053001e-01
4.053001e-01
4.053001e-01
4.053001e-01
4.053001e-01
4.053001e-01
4.053001e-01
4.053001e-01
4.053001e-01
4.053001e-01
4.053001e-01
4.053001e-01
4.053001e-01
4.053001e-01
4.053001e-01
2.178969e-01
2.350312e-01
2.257676e-01
2.603935e-01
2.324975e-01
2.470315e-01
1.997901e-01
1.884036e-01
2.405499e-01
2.086542e-01
2.234151e-01
2.176128e-01
2.388991e-01
2.115812e-01
3.872846e-01
2.586881e-01
2.323851e-01
2.058584e-01
2.651509e-01
2.505919e-01
2.358947e-01
2.038525e-01
1.421340e-01
2.365974e-01
2.492945e-01
2.217210e-01
1.977997e-01
1.751180e-01
1.256230e-01
1.221380e-01
1.382105e-01
1.162067e-01
9.780140e-02
8.707387e-02
3.768901e-01
3.716690e-01
3.838947e-01
3.935762e-01
3.631411e-01
3.578618e-01
3.450081e-01
3.422388e-01
3.316123e-01
3.224760e-01
3.318081e-01
3.152122e-01
3.148179e-01
3.059261e-01
2.980996e-01
2.982949e-01
2.918549e-01
2.874082e-01
2.803783e-01
2.726778e-01
2.832621e-01
2.736247e-01
2.629572e-01
2.647299e-01
2.539382e-01
2.463799e-01
1.629927e-01
1.628641e-01
3.524677e-01
3.658645e-01
3.780950e-01
3.900105e-01
1.749802e-01
1.862266e-01
2.021794e-01
2.205733e-01
1.810637e-01
1.950319e-01
1.490773e-01
1.520192e-01
1.585204e-01
1.682201e-01
3.709735e-01
3.520460e-01
3.445555e-01
3.282360e-01
3.224882e-01
3.289523e-01
2.964958e-01
2.956650e-01
3.046197e-01
3.117648e-01
2.643260e-01
2.376498e-01
2.679796e-01
2.818054e-01
2.813929e-01
2.943153e-01
5.489061e-02
7.981569e-02
8.010919e-02
1.066297e-01
1.046412e-01
1.278715e-01
1.339987e-01
1.320735e-01
1.559086e-01
3.312765e-01
3.457856e-01
3.594118e-01
3.719998e-01
3.830721e-01
1.500264e-01
1.607794e-01
1.600406e-01
2.072941e-01
1.830442e-01
1.893690e-01
1.840069e-01
1.787064e-01
1.715134e-01
2.781502e-01
2.474678e-01
2.190526e-01
1.901756e-01
2.035017e-01
2.573149e-01
2.284319e-01
3.937251e-01
3.917268e-01
3.799094e-01
3.915971e-01
3.891825e-01
3.754507e-01
3.633647e-01
3.782319e-01
3.690431e-01
3.563406e-01
3.433613e-01
3.894724e-01
3.753867e-01
3.620946e-01
3.490474e-01
3.345636e-01
3.197940e-01
3.935942e-01
3.842007e-01
3.708042e-01
3.568175e-01
3.423436e-01
3.270617e-01
3.097222e-01
2.913504e-01
2.704100e-01
3.900131e-01
3.778292e-01
3.643962e-01
3.510013e-01
3.365893e-01
3.207093e-01
3.038820e-01
2.805548e-01
2.637040e-01
2.518301e-01
3.090833e-01
3.243991e-01
3.387384e-01
3.523537e-01
3.656763e-01
3.795442e-01
3.908438e-01
3.313052e-02
1.996889e-02
6.105392e-02
4.325915e-02
2.313062e-02
8.888080e-02
6.897779e-02
4.837687e-02
2.542477e-02
1.346750e-01
1.144545e-01
9.510285e-02
7.482694e-02
5.264485e-02
2.792743e-02
1.865306e-01
1.604838e-01
1.390689e-01
1.212289e-01
1.020036e-01
8.097655e-02
5.793072e-02
3.176181e-02
1.273644e-01
1.012679e-01
6.639310e-02
3.972995e-02
2.092499e-01
2.904727e-02
1.816960e-01
1.607026e-01
1.477692e-01
1.301531e-01
1.099850e-01
8.895043e-02
6.620499e-02
4.001324e-02
3.921414e-01
3.766383e-01
3.588671e-01
3.385986e-01
3.160826e-01
2.919800e-01
2.668064e-01
2.409409e-01
2.145068e-01
1.864560e-01
1.537758e-01
1.247820e-01
9.529377e-02
6.487445e-02
3.361874e-02
3.909358e-01
2.843755e-01
3.021379e-01
3.171100e-01
3.305644e-01
3.447643e-01
3.590604e-01
3.720669e-01
3.831062e-01
3.745556e-01
3.556781e-01
3.346008e-01
3.118092e-01
2.877252e-01
2.626062e-01
2.366137e-01
2.095939e-01
1.811713e-01
1.516795e-01
1.223111e-01
9.256506e-02
6.233100e-02
3.139895e-02
3.901853e-01
3.730762e-01
3.536386e-01
3.321345e-01
3.091771e-01
2.850127e-01
2.598464e-01
2.337173e-01
2.066077e-01
1.785323e-01
1.497783e-01
1.205780e-01
9.096077e-02
6.092601e-02
3.053191e-02
3.897275e-01
3.722254e-01
3.524557e-01
3.307767e-01
3.076898e-01
2.834767e-01
2.582476e-01
2.320792e-01
2.050072e-01
1.771376e-01
1.486148e-01
1.195771e-01
9.009135e-02
6.026221e-02
3.017150e-02
3.894942e-01
3.717832e-01
3.518792e-01
3.300920e-01
3.069631e-01
2.827030e-01
2.574510e-01
2.312699e-01
2.042407e-01
1.764545e-01
1.480350e-01
1.190769e-01
8.969144e-02
5.996885e-02
3.003059e-02
3.893847e-01
3.715943e-01
3.516196e-01
3.298051e-01
3.066443e-01
2.823722e-01
2.571045e-01
2.309258e-01
2.039141e-01
1.761675e-01
1.477840e-01
1.188712e-01
2.182736e-01
1.979347e-01
1.792329e-01
1.617953e-01
1.423897e-01
1.217209e-01
1.004164e-01
7.781864e-02
5.403991e-02
3.142496e-02
1.491233e-02
8.952620e-02
5.985775e-02
2.997598e-02
3.893409e-01
3.715161e-01
3.515270e-01
3.296946e-01
3.065298e-01
2.822478e-01
2.569773e-01
2.307984e-01
2.037962e-01
1.760615e-01
1.476952e-01
1.187962e-01
8.946775e-02
5.981631e-02
2.995048e-02
3.893195e-01
3.714925e-01
3.514949e-01
3.296633e-01
3.064920e-01
2.822096e-01
2.569367e-01
2.307589e-01
2.037590e-01
1.760295e-01
1.476673e-01
1.187728e-01
8.944912e-02
2.533608e-01
2.790013e-01
2.966453e-01
3.068032e-01
3.212745e-01
3.367411e-01
3.516980e-01
3.646209e-01
3.782025e-01
3.907481e-01
5.979810e-02
2.993758e-02
3.893174e-01
3.714890e-01
3.514918e-01
3.296502e-01
3.064814e-01
2.821960e-01
2.569242e-01
2.307463e-01
2.037478e-01
1.760192e-01
1.476583e-01
1.187654e-01
8.944180e-02
5.979605e-02
2.993745e-02
3.893591e-01
3.714958e-01
3.514736e-01
3.296370e-01
3.064620e-01
2.821811e-01
2.569088e-01
2.307330e-01
2.037343e-01
1.760067e-01
1.476456e-01
1.187543e-01
8.943488e-02
5.979408e-02
2.994585e-02
3.892801e-01
3.714239e-01
3.514251e-01
3.295764e-01
3.064084e-01
2.821258e-01
2.568601e-01
2.306843e-01
2.036882e-01
1.759581e-01
1.475999e-01
1.187093e-01
8.939807e-02
5.977058e-02
2.993885e-02
3.892089e-01
3.713555e-01
3.512950e-01
3.294214e-01
3.062342e-01
2.819621e-01
2.566990e-01
2.305306e-01
2.035280e-01
1.758013e-01
1.474379e-01
1.185599e-01
8.925760e-02
5.965732e-02
2.987258e-02
3.892666e-01
3.711823e-01
3.509626e-01
3.289870e-01
3.057907e-01
2.815256e-01
2.562797e-01
2.300989e-01
2.030957e-01
1.753492e-01
1.470001e-01
1.695047e-01
1.518834e-01
1.334426e-01
1.139414e-01
9.396341e-02
7.411249e-02
5.147975e-02
2.721915e-02
1.181263e-01
8.886764e-02
5.932218e-02
2.966163e-02
3.889786e-01
3.705722e-01
3.500752e-01
3.279996e-01
3.048065e-01
2.805869e-01
2.553223e-01
2.291176e-01
2.020610e-01
1.743114e-01
1.459509e-01
1.171334e-01
8.793834e-02
5.855027e-02
2.919753e-02
3.882304e-01
3.691276e-01
3.482227e-01
3.260861e-01
3.030427e-01
2.788515e-01
2.534870e-01
2.271239e-01
2.000050e-01
1.722117e-01
1.439070e-01
1.151026e-01
8.608356e-02
1.869811e-01
5.702862e-02
2.839730e-02
3.868160e-01
3.660973e-01
3.447869e-01
3.231078e-01
3.005008e-01
2.761198e-01
2.502646e-01
2.235813e-01
1.963609e-01
1.686851e-01
1.404774e-01
1.114565e-01
8.260441e-02
5.452183e-02
2.757238e-02
3.854304e-01
3.696953e-01
3.453002e-01
3.177052e-01
3.837772e-01
3.592853e-01
3.393940e-01
3.204070e-01
2.975962e-01
2.719945e-01
2.449764e-01
2.176744e-01
1.906948e-01
1.638277e-01
1.360875e-01
1.046055e-01
7.548644e-02
5.304200e-02
2.797546e-02
2.295652e-02
2.846049e-02
4.798695e-02
2.220145e-02
1.574600e-01
1.412673e-01
1.237397e-01
1.050341e-01
8.569265e-02
6.664212e-02
5.065760e-02
2.509564e-02
3.780997e-02
5.707042e-02
7.455783e-02
2.786807e-02
4.828279e-02
6.688543e-02
8.513346e-02
1.019241e-01
3.713403e-02
5.708405e-02
7.655498e-02
9.537977e-02
1.131781e-01
1.292767e-01
3.321747e-01
3.321747e-01
3.321747e-01
3.321747e-01
3.321747e-01
3.321747e-01
3.321747e-01
3.321747e-01
3.321747e-01
3.321747e-01
3.321747e-01
3.321747e-01
3.321747e-01
3.321747e-01
3.321747e-01
3.321747e-01
3.321747e-01
3.321747e-01
3.321747e-01
3.321747e-01
3.321747e-01
3.321747e-01
3.321747e-01
3.321747e-01
3.321747e-01
3.321747e-01
3.321747e-01
3.321747e-01
3.321747e-01
3.321747e-01
3.321747e-01
3.321747e-01
3.321747e-01
3.571595e-01
3.819337e-01
3.693067e-01
3.566558e-01
3.810448e-01
3.567405e-01
3.811319e-01
3.567666e-01
3.811667e-01
3.576925e-01
3.823785e-01
3.701074e-01
3.689938e-01
3.568878e-01
3.812248e-01
3.567392e-01
3.811593e-01
3.565338e-01
3.806728e-01
3.751947e-01
3.540330e-01
3.814593e-01
3.567680e-01
3.812926e-01
3.588246e-01
3.800635e-01
3.561192e-01
3.842387e-01
3.540558e-01
3.806712e-01
3.563732e-01
3.808618e-01
3.565728e-01
3.809059e-01
3.567156e-01
3.811084e-01
3.567532e-01
3.811430e-01
3.568185e-01
3.812416e-01
3.570021e-01
3.815036e-01
3.601961e-01
3.852329e-01
3.539919e-01
3.809854e-01
3.589834e-01
3.842390e-01
3.575045e-01
3.825887e-01
3.522143e-01
3.801792e-01
3.811717e-01
3.567235e-01
3.565585e-01
3.811837e-01
3.568430e-01
3.811982e-01
3.567707e-01
3.811977e-01
-1.734723e-17
-1.734723e-17
-1.734723e-17
-1.734723e-17
-1.734723e-17
-1.734723e-17
-1.734723e-17
-1.734723e-17
-1.734723e-17
-1.734723e-17
-1.734723e-17
-1.734723e-17
-1.734723e-17
-1.734723e-17
-1.734723e-17
-1.734723e-17
-1.734723e-17
-1.734723e-17
-1.734723e-17
-1.734723e-17
-1.734723e-17
-1.734723e-17
-1.734723e-17
-1.734723e-17
-1.734723e-17
-1.734723e-17
-1.734723e-17
-1.734723e-17
-1.734723e-17
-1.734723e-17
-1.734723e-17
-1.734723e-17
-1.734723e-17
1.644915e-01
2.176657e-01
2.135945e-01
1.703305e-01
1.845053e-01
1.558421e-01
5.782931e-02
2.678218e-01
1.270792e-01
8.291286e-02
8.662823e-02
1.107254e-01
1.015596e-01
1.275411e-01
1.430047e-01
1.231546e-01
1.397109e-01
1.585235e-01
1.634422e-01
1.723543e-01
1.655155e-01
1.880829e-01
3.750858e-02
2.369934e-02
1.948208e-01
1.901316e-01
1.901420e-01
1.963968e-01
2.340223e-01
2.126790e-01
2.277965e-01
2.469523e-01
2.417251e-01
2.515467e-01
2.748009e-01
1.803418e-01
2.034479e-01
2.276190e-01
2.415613e-01
2.434200e-01
2.417273e-01
2.451162e-01
1.491577e-01
1.787782e-01
2.032274e-01
1.785489e-01
2.022389e-01
2.282100e-01
2.458106e-01
6.834806e-02
5.097452e-02
2.973007e-02
2.484944e-01
2.930809e-01
2.725060e-01
2.714024e-01
2.277738e-01
2.444008e-01
2.494939e-01
2.051013e-01
2.113162e-01
2.211022e-01
2.295861e-01
1.798666e-01
1.894443e-01
2.012220e-01
2.116499e-01
4.371632e-02
6.775368e-02
1.091911e-01
1.087875e-01
1.504095e-01
1.527965e-01
1.378048e-01
1.259071e-01
1.964429e-01
1.723504e-01
1.434515e-01
2.060473e-02
2.012414e-02
1.944426e-02
2.031605e-02
2.165974e-02
2.052446e-02
2.154606e-02
2.173475e-02
9.966147e-02
8.174421e-02
6.284370e-02
4.144569e-02
2.391776e-02
1.824048e-02
1.546521e-02
1.926406e-02
1.748604e-02
2.355601e-02
6.365651e-02
3.482910e-02
3.729969e-02
5.283292e-02
7.171785e-02
8.981340e-02
2.349213e-02
4.300809e-02
6.439850e-02
8.328495e-02
1.023378e-01
1.179734e-01
2.871326e-02
5.252293e-02
7.369281e-02
9.348967e-02
1.131753e-01
1.356916e-01
1.435113e-01
3.157323e-01
2.971274e-01
3.148039e-01
2.599932e-01
2.779975e-01
2.960880e-01
3.140463e-01
2.384629e-01
2.575242e-01
2.759324e-01
2.938765e-01
1.309245e-01
1.128932e-01
9.464568e-02
7.631768e-02
4.853378e-02
2.854480e-02
3.122869e-01
3.525586e-02
6.330033e-02
9.387944e-02
1.248273e-01
1.577567e-01
1.880340e-01
2.165868e-01
2.414943e-01
2.656386e-01
2.929250e-01
3.102134e-01
1.902097e-01
2.144598e-01
2.358230e-01
2.545757e-01
2.720574e-01
2.894631e-01
3.079584e-01
3.154218e-01
2.533403e-01
2.823853e-01
3.039788e-01
1.362533e-01
1.678537e-01
1.913560e-01
2.165247e-01
3.892998e-02
6.576939e-02
9.977678e-02
3.453868e-02
7.191853e-02
1.052473e-01
1.329883e-01
1.650098e-01
1.908951e-01
2.120195e-01
2.360396e-01
2.612215e-01
2.856155e-01
3.091774e-01
2.653429e-01
2.887408e-01
3.112234e-01
1.337634e-01
1.667089e-01
1.913412e-01
2.186953e-01
3.054760e-02
5.768071e-02
9.553587e-02
3.733088e-02
7.738212e-02
1.948512e-01
2.187220e-01
2.371618e-01
2.554531e-01
2.742749e-01
2.934891e-01
3.105959e-01
3.224124e-01
1.067927e-01
1.263805e-01
1.540683e-01
1.918319e-01
2.229346e-01
2.441256e-01
2.672767e-01
2.902328e-01
3.120305e-01
2.675658e-01
2.907053e-01
3.122850e-01
1.224773e-01
1.533222e-01
1.846996e-01
2.146973e-01
3.746571e-02
6.749141e-02
9.752108e-02
3.174473e-02
6.462343e-02
9.767282e-02
1.278837e-01
1.606039e-01
1.876257e-01
2.168974e-01
2.425212e-01
2.673975e-01
2.907846e-01
3.123690e-01
2.673658e-01
1.618641e-01
2.909124e-01
3.124487e-01
3.517844e-02
6.996936e-02
1.011843e-01
1.303892e-01
1.578067e-01
1.822212e-01
2.114998e-01
2.425781e-01
2.679480e-01
2.912754e-01
3.126503e-01
1.375410e-01
1.647191e-01
1.881889e-01