VARIABLES = "X" "Y" "Z" "FREF"
ZONE T="instant 072"
STRANDID=0, SOLUTIONTIME=0
Nodes=3151, Elements=6298
ZONETYPE=FETriangle
DATAPACKING=BLOCK
VARLOCATION = ([1-3]=NODAL, [4]=CELLCENTERED)
5.000000e-01
2.288429e-01
2.500274e-01
2.670921e-01
2.816977e-01
2.985209e-01
3.158216e-01
3.334095e-01
3.518110e-01
3.706616e-01
3.885049e-01
4.042109e-01
4.184996e-01
4.316480e-01
4.435961e-01
4.540537e-01
4.628488e-01
4.695145e-01
4.755871e-01
4.819103e-01
4.874314e-01
4.918230e-01
4.950689e-01
4.974528e-01
4.990026e-01
4.998133e-01
2.122000e-01
2.122000e-01
2.122000e-01
2.122000e-01
2.122000e-01
2.122000e-01
2.122000e-01
2.122000e-01
2.122000e-01
2.122000e-01
2.122000e-01
2.122000e-01
3.615982e-01
3.602794e-01
3.569198e-01
3.514331e-01
3.445654e-01
3.397596e-01
3.336065e-01
3.255430e-01
3.178196e-01
3.103534e-01
3.021274e-01
2.923691e-01
2.843793e-01
2.767429e-01
2.694231e-01
2.599895e-01
2.505230e-01
2.436119e-01
2.346011e-01
2.238607e-01
3.622000e-01
4.876808e-01
4.741528e-01
4.616980e-01
4.492232e-01
4.356972e-01
4.218553e-01
4.087739e-01
3.960708e-01
3.835403e-01
3.722081e-01
3.942270e-01
2.565342e-01
2.450115e-01
4.057672e-01
3.871974e-01
2.622449e-01
2.723499e-01
2.531112e-01
2.745115e-01
2.324500e-01
2.755136e-01
2.617122e-01
2.801047e-01
2.914968e-01
4.886793e-01
3.049717e-01
3.198344e-01
2.980535e-01
3.080104e-01
3.508052e-01
3.612747e-01
3.937137e-01
3.758098e-01
3.759601e-01
4.022136e-01
4.111016e-01
3.930971e-01
4.835052e-01
4.758360e-01
4.033117e-01
4.166242e-01
4.103833e-01
4.266806e-01
4.206730e-01
4.300385e-01
3.713889e-01
3.911070e-01
3.811218e-01
3.649460e-01
2.539044e-01
2.393877e-01
2.266525e-01
2.305497e-01
2.302408e-01
2.476351e-01
2.643489e-01
2.310400e-01
2.481857e-01
2.651119e-01
2.820243e-01
2.223124e-01
2.338730e-01
2.493954e-01
2.663684e-01
4.862032e-01
2.832249e-01
2.994086e-01
3.008574e-01
3.167822e-01
3.037069e-01
3.172441e-01
3.335379e-01
2.291231e-01
2.483098e-01
2.669158e-01
2.865196e-01
2.793899e-01
2.795231e-01
2.888932e-01
2.977386e-01
3.162660e-01
3.304825e-01
3.399347e-01
3.513130e-01
2.296893e-01
2.468944e-01
2.653043e-01
2.863651e-01
3.014310e-01
3.145056e-01
3.297944e-01
3.172735e-01
3.281313e-01
3.326468e-01
3.448072e-01
3.575677e-01
3.722624e-01
2.939479e-01
3.070059e-01
3.206095e-01
3.446943e-01
4.819157e-01
4.734870e-01
4.682791e-01
4.609249e-01
3.589370e-01
3.731490e-01
3.882789e-01
2.997771e-01
3.330581e-01
3.462479e-01
3.599928e-01
3.733016e-01
3.875358e-01
4.026729e-01
3.133985e-01
3.268447e-01
3.411993e-01
3.480447e-01
3.619303e-01
3.767273e-01
4.773218e-01
4.679108e-01
4.604719e-01
4.532467e-01
4.466523e-01
3.862994e-01
4.002178e-01
4.155564e-01
3.592075e-01
3.757509e-01
3.950847e-01
4.111403e-01
4.272910e-01
3.181896e-01
3.317694e-01
3.454049e-01
3.605479e-01
3.913137e-01
4.072745e-01
4.227048e-01
4.383517e-01
3.748702e-01
3.899145e-01
4.040610e-01
4.190843e-01
4.334518e-01
4.483982e-01
4.381781e-01
4.478366e-01
3.341316e-01
3.476269e-01
3.611684e-01
3.758700e-01
3.897110e-01
4.034474e-01
4.154277e-01
4.303804e-01
4.431411e-01
4.576180e-01
4.134212e-01
4.198374e-01
4.716391e-01
4.620466e-01
4.543230e-01
4.458754e-01
4.400796e-01
4.328247e-01
4.252089e-01
4.245233e-01
4.325994e-01
4.394634e-01
4.468393e-01
4.551524e-01
4.650094e-01
2.122000e-01
4.997384e-01
4.981377e-01
4.954694e-01
4.919514e-01
4.862421e-01
4.795838e-01
4.709396e-01
4.600386e-01
4.466615e-01
4.328083e-01
4.200798e-01
4.062975e-01
3.919068e-01
3.765203e-01
3.629771e-01
3.515628e-01
3.400233e-01
3.269085e-01
3.127730e-01
2.983425e-01
2.837715e-01
2.689116e-01
2.539827e-01
2.389768e-01
2.246521e-01
5.000000e-01
3.720951e-01
3.836223e-01
3.957363e-01
4.092342e-01
4.220750e-01
4.347312e-01
4.483400e-01
4.629014e-01
4.765376e-01
4.891721e-01
3.622000e-01
2.222584e-01
2.321633e-01
2.444427e-01
2.595532e-01
2.708243e-01
2.813848e-01
2.916588e-01
3.014113e-01
3.095605e-01
3.154623e-01
3.231643e-01
3.301660e-01
3.356216e-01
3.399329e-01
3.439658e-01
3.495233e-01
3.536264e-01
3.559442e-01
3.581202e-01
3.602227e-01
3.617475e-01
2.122000e-01
2.122000e-01
2.122000e-01
2.122000e-01
2.122000e-01
2.122000e-01
2.122000e-01
2.122000e-01
2.122000e-01
2.122000e-01
2.122000e-01
3.964029e-01
4.197929e-01
2.463864e-01
2.760661e-01
2.662757e-01
3.701496e-01
3.748370e-01
3.868129e-01
3.855527e-01
4.010094e-01
4.012383e-01
4.077405e-01
3.919189e-01
4.366904e-01
2.265565e-01
4.262524e-01
4.102422e-01
4.282816e-01
3.993461e-01
4.202888e-01
4.104971e-01
4.334333e-01
4.236243e-01
2.292972e-01
2.793967e-01
2.488929e-01
2.420889e-01
2.305994e-01
2.726376e-01
2.965562e-01
2.612943e-01
2.952664e-01
2.795286e-01
3.029423e-01
2.901503e-01
3.125947e-01
3.231368e-01
2.368827e-01
3.728328e-01
2.279452e-01
2.387622e-01
2.564772e-01
3.652703e-01
3.771675e-01
3.861281e-01
4.859807e-01
4.718012e-01
4.796993e-01
4.829336e-01
4.513737e-01
4.582988e-01
4.640232e-01
4.691551e-01
2.566226e-01
2.449862e-01
2.286033e-01
4.764762e-01
4.491691e-01
4.544053e-01
4.599519e-01
4.715303e-01
4.405096e-01
4.433557e-01
4.585946e-01
4.647903e-01
3.643026e-01
3.699586e-01
3.785773e-01
4.266089e-01
4.378963e-01
4.520756e-01
4.149932e-01
4.289942e-01
4.338980e-01
4.403838e-01
4.440832e-01
4.464226e-01
4.500377e-01
3.524854e-01
3.846245e-01
3.972609e-01
4.126587e-01
4.210998e-01
4.309391e-01
4.398072e-01
3.564417e-01
3.604645e-01
3.686394e-01
4.028465e-01
4.130156e-01
2.715270e-01
2.604073e-01
4.204110e-01
4.274576e-01
3.397236e-01
3.740798e-01
3.825479e-01
3.959270e-01
4.029222e-01
4.087507e-01
4.147208e-01
3.443551e-01
3.472018e-01
3.544514e-01
3.838109e-01
3.914584e-01
3.963194e-01
4.016010e-01
3.572307e-01
2.853333e-01
2.725853e-01
2.585219e-01
2.433972e-01
2.269408e-01
3.626677e-01
3.744735e-01
3.792019e-01
3.830245e-01
3.877953e-01
3.229954e-01
3.279589e-01
3.301097e-01
3.375446e-01
3.607693e-01
3.652646e-01
3.693514e-01
3.736961e-01
3.387450e-01
3.429517e-01
3.457587e-01
3.518130e-01
3.563289e-01
3.592186e-01
2.294034e-01
2.466510e-01
2.675678e-01
2.831645e-01
2.975515e-01
3.126207e-01
3.272554e-01
3.020958e-01
3.052235e-01
3.163944e-01
3.200779e-01
3.199958e-01
3.265492e-01
3.324604e-01
3.411589e-01
3.415391e-01
3.430676e-01
2.994691e-01
2.865478e-01
2.736478e-01
2.601465e-01
2.447303e-01
2.286073e-01
3.023639e-01
3.144005e-01
3.275005e-01
2.777752e-01
2.887981e-01
3.007491e-01
3.136537e-01
5.000000e-01
5.000000e-01
5.000000e-01
5.000000e-01
5.000000e-01
5.000000e-01
5.000000e-01
5.000000e-01
5.000000e-01
5.000000e-01
5.000000e-01
5.000000e-01
5.000000e-01
5.000000e-01
5.000000e-01
5.000000e-01
5.000000e-01
5.000000e-01
5.000000e-01
5.000000e-01
5.000000e-01
5.000000e-01
5.000000e-01
5.000000e-01
5.000000e-01
5.000000e-01
5.000000e-01
5.000000e-01
5.000000e-01
5.000000e-01
5.000000e-01
5.000000e-01
5.000000e-01
2.122000e-01
2.122000e-01
2.122000e-01
2.122000e-01
2.122000e-01
2.122000e-01
2.122000e-01
2.122000e-01
2.122000e-01
2.122000e-01
2.122000e-01
2.122000e-01
2.122000e-01
2.122000e-01
2.122000e-01
2.122000e-01
2.122000e-01
2.122000e-01
2.122000e-01
2.122000e-01
2.122000e-01
2.122000e-01
2.122000e-01
2.122000e-01
2.122000e-01
2.122000e-01
2.122000e-01
2.122000e-01
2.122000e-01
2.122000e-01
2.122000e-01
2.122000e-01
2.122000e-01
3.844706e-01
3.934966e-01
3.898142e-01
3.985596e-01
4.077894e-01
4.291665e-01
4.140974e-01
4.206960e-01
3.535618e-01
3.617496e-01
3.683914e-01
3.695422e-01
3.759970e-01
3.810629e-01
3.859272e-01
4.064737e-01
3.918846e-01
3.843625e-01
3.983749e-01
4.122783e-01
3.771951e-01
3.771487e-01
2.361568e-01
2.266474e-01
3.894999e-01
4.034562e-01
4.174371e-01
4.025131e-01
4.115352e-01
4.208092e-01
4.151037e-01
4.235181e-01
4.269503e-01
4.444311e-01
4.171860e-01
4.275119e-01
4.126673e-01
4.325949e-01
4.198961e-01
4.064316e-01
4.371882e-01
4.252245e-01
4.137095e-01
4.019143e-01
4.367297e-01
4.458113e-01
4.426309e-01
4.337957e-01
4.262364e-01
2.548910e-01
2.432171e-01
2.299127e-01
3.979123e-01
4.065080e-01
4.137994e-01
3.916140e-01
4.000579e-01
3.853595e-01
2.261817e-01
2.367791e-01
2.391677e-01
2.496400e-01
2.525612e-01
2.608317e-01
2.634471e-01
2.664266e-01
2.672702e-01
2.736103e-01
2.773237e-01
2.805978e-01
2.816774e-01
2.873273e-01
2.914168e-01
2.949519e-01
2.902950e-01
2.963689e-01
3.015257e-01
3.056947e-01
3.093923e-01
3.001798e-01
3.056513e-01
3.111315e-01
3.159616e-01
3.200573e-01
3.238114e-01
3.095230e-01
2.721194e-01
2.608368e-01
2.487754e-01
2.362192e-01
2.273949e-01
3.152705e-01
3.207386e-01
3.258946e-01
3.304923e-01
3.343691e-01
3.380774e-01
3.241795e-01
3.303164e-01
3.356642e-01
3.406042e-01
3.450587e-01
3.484355e-01
3.520308e-01
3.322775e-01
3.392423e-01
3.454660e-01
3.503724e-01
3.552061e-01
3.597734e-01
3.618652e-01
3.655320e-01
3.402153e-01
3.473795e-01
3.544064e-01
3.608639e-01
3.645237e-01
3.696947e-01
3.753780e-01
3.736045e-01
3.790103e-01
3.904360e-01
4.242579e-01
3.729495e-01
3.855892e-01
3.993281e-01
2.889503e-01
2.783285e-01
2.669847e-01
2.554464e-01
2.448210e-01
2.345160e-01
4.130680e-01
3.640628e-01
3.779484e-01
3.924625e-01
4.066430e-01
4.192111e-01
4.307670e-01
3.922229e-01
4.001346e-01
4.052772e-01
4.102567e-01
4.146117e-01
4.201977e-01
4.259254e-01
4.314879e-01
4.318308e-01
4.347015e-01
4.379314e-01
4.399335e-01
4.422398e-01
4.450893e-01
4.204054e-01
4.273691e-01
4.333500e-01
4.390756e-01
4.445983e-01
4.490928e-01
4.519447e-01
4.311886e-01
4.341465e-01
4.395950e-01
4.462600e-01
4.512786e-01
4.550406e-01
4.583051e-01
4.425274e-01
4.531789e-01
4.516947e-01
4.594368e-01
4.612550e-01
4.642334e-01
4.675208e-01
4.699322e-01
4.521124e-01
4.638082e-01
4.707259e-01
4.750358e-01
4.612723e-01
4.713018e-01
4.757404e-01
4.794484e-01
4.765733e-01
4.839936e-01
3.060852e-01
2.956583e-01
2.847089e-01
2.735268e-01
2.624730e-01
2.512864e-01
2.382864e-01
2.283043e-01
4.816515e-01
4.882874e-01
4.837747e-01
4.891704e-01
4.947983e-01
4.984358e-01
4.965065e-01
4.940190e-01
4.936617e-01
4.910844e-01
4.897792e-01
4.903256e-01
4.849489e-01
4.856117e-01
4.864953e-01
4.875907e-01
4.792274e-01
4.798740e-01
4.808767e-01
4.821308e-01
4.835599e-01
4.730837e-01
4.742018e-01
4.756227e-01
4.772775e-01
4.790590e-01
4.720365e-01
4.741681e-01
4.651549e-01
4.664491e-01
4.680295e-01
4.699292e-01
4.561805e-01
4.576173e-01
4.593119e-01
4.614504e-01
4.639596e-01
4.665435e-01
4.689045e-01
4.464410e-01
4.477875e-01
4.494472e-01
4.517414e-01
4.547250e-01
4.579845e-01
4.608486e-01
4.629714e-01
4.258644e-01
4.268460e-01
4.371368e-01
4.384927e-01
4.406166e-01
4.442588e-01
4.481276e-01
4.526348e-01
4.535948e-01
4.568217e-01
4.281644e-01
4.379690e-01
4.215603e-01
2.593176e-01
2.824170e-01
2.695588e-01
2.873665e-01
2.811453e-01
3.040305e-01
2.997815e-01
2.933517e-01
3.254429e-01
3.177960e-01
3.234160e-01
3.129168e-01
3.021202e-01
2.911424e-01
2.800871e-01
2.688717e-01
2.571965e-01
2.459818e-01
2.349998e-01
3.116706e-01
3.053264e-01
3.442531e-01
3.365268e-01
3.295996e-01
3.232156e-01
3.169781e-01
3.546418e-01
3.473413e-01
3.406999e-01
3.344228e-01
3.283026e-01
3.720141e-01
3.645482e-01
3.577235e-01
3.514009e-01
3.453303e-01
3.393092e-01
3.882888e-01
3.810519e-01
3.741161e-01
3.677924e-01
3.618387e-01
3.559766e-01
3.499776e-01
4.030036e-01
3.968948e-01
3.897262e-01
3.834584e-01
3.776662e-01
3.721219e-01
3.663327e-01
3.602177e-01
4.151183e-01
4.129847e-01
4.043341e-01
3.983366e-01
3.925963e-01
3.875750e-01
3.822672e-01
3.761665e-01
3.699513e-01
4.519904e-01
4.436831e-01
4.332350e-01
4.214092e-01
4.082742e-01
3.940983e-01
3.791864e-01
4.413314e-01
4.299280e-01
4.170960e-01
4.024067e-01
3.878713e-01
2.268507e-01
2.254678e-01
2.281839e-01
2.422394e-01
2.379301e-01
2.462528e-01
2.576903e-01
2.264307e-01
2.394318e-01
2.513004e-01
2.616897e-01
2.728033e-01
2.273762e-01
2.410123e-01
2.536894e-01
2.654870e-01
2.765901e-01
2.876919e-01
3.408863e-01
3.300585e-01
3.192540e-01
3.084285e-01
2.975095e-01
2.864250e-01
2.750893e-01
2.636495e-01
2.519195e-01
2.387410e-01
2.276081e-01
2.237561e-01
2.311328e-01
2.432349e-01
2.558635e-01
2.681517e-01
2.799352e-01
2.913213e-01
3.024584e-01
2.229037e-01
2.264165e-01
2.374782e-01
2.471337e-01
2.585780e-01
2.706381e-01
2.826558e-01
2.944202e-01
3.059493e-01
3.172236e-01
2.302921e-01
2.411840e-01
2.517906e-01
2.621083e-01
2.734179e-01
2.852256e-01
2.970808e-01
3.088075e-01
3.204208e-01
3.322145e-01
3.450156e-01
2.243944e-01
2.352499e-01
2.451301e-01
2.558023e-01
2.661727e-01
2.764936e-01
2.878810e-01
2.995933e-01
3.113417e-01
3.229821e-01
3.344767e-01
3.460176e-01
3.563641e-01
2.253639e-01
2.375016e-01
2.480071e-01
2.594419e-01
2.703889e-01
2.804567e-01
2.902616e-01
3.021175e-01
3.136964e-01
3.253999e-01
3.369166e-01
3.482041e-01
3.598472e-01
3.687126e-01
2.195168e-01
2.272014e-01
2.385704e-01
2.513492e-01
2.604224e-01
2.742810e-01
2.851171e-01
2.947216e-01
3.029322e-01
3.166548e-01
3.274132e-01
3.393138e-01
3.506004e-01
3.613600e-01
3.747532e-01
3.809971e-01
3.583545e-01
3.469465e-01
3.360146e-01
3.253571e-01
3.146575e-01
3.037782e-01
2.926539e-01
2.812788e-01
2.695540e-01
2.572164e-01
2.446754e-01
2.304813e-01
4.992547e-01
4.997398e-01
4.974802e-01
4.987991e-01
4.996718e-01
4.947656e-01
4.969306e-01
4.985466e-01
4.996098e-01
4.878772e-01
4.912692e-01
4.941348e-01
4.965070e-01
4.983436e-01
4.995554e-01
4.745626e-01
4.821636e-01
4.867187e-01
4.903821e-01
4.934976e-01
4.961024e-01
4.981398e-01
4.994971e-01
4.770192e-01
4.815007e-01
4.856925e-01
4.894879e-01
4.928249e-01
4.956527e-01
4.978909e-01
4.994142e-01
4.659576e-01
4.705533e-01
4.752775e-01
4.800351e-01
4.844612e-01
4.884818e-01
4.920415e-01
4.950774e-01
4.975085e-01
4.992306e-01
4.996776e-01
4.561005e-01
4.624381e-01
4.680372e-01
4.733739e-01
4.784151e-01
4.830775e-01
4.873121e-01
4.910636e-01
4.942548e-01
4.967688e-01
4.984466e-01
4.995711e-01
4.377153e-01
4.460978e-01
4.533596e-01
4.597929e-01
4.657632e-01
4.713883e-01
4.766490e-01
4.815065e-01
4.859191e-01
4.898337e-01
4.931856e-01
4.959115e-01
4.980349e-01
4.994700e-01
4.147022e-01
4.264500e-01
4.356812e-01
4.437045e-01
4.507428e-01
4.572763e-01
3.754148e-01
3.633582e-01
3.521767e-01
3.418193e-01
3.314548e-01
3.208654e-01
3.099881e-01
2.988002e-01
2.872564e-01
2.752738e-01
2.628836e-01
2.499368e-01
2.370255e-01
4.634489e-01
4.692594e-01
4.746813e-01
4.796907e-01
4.842503e-01
4.883314e-01
4.919331e-01
4.950500e-01
4.976401e-01
4.993608e-01
2.260815e-01
2.402127e-01
2.544972e-01
2.689596e-01
2.835683e-01
2.982629e-01
3.129671e-01
3.275934e-01
3.420522e-01
3.562784e-01
3.702902e-01
3.840785e-01
3.975502e-01
4.108045e-01
4.234746e-01
4.353423e-01
4.462662e-01
4.567597e-01
4.671494e-01
4.743751e-01
4.811887e-01
4.884672e-01
4.935600e-01
4.974409e-01
4.039571e-01
4.165664e-01
4.252447e-01
4.338157e-01
4.410584e-01
4.479954e-01
4.546669e-01
4.609905e-01
4.669113e-01
4.724448e-01
4.775697e-01
4.822128e-01
4.864502e-01
4.903774e-01
4.938265e-01
4.973994e-01
4.990281e-01
2.268177e-01
2.415666e-01
2.564421e-01
2.714283e-01
2.864921e-01
3.015797e-01
3.166239e-01
3.315524e-01
3.462993e-01
3.608150e-01
3.750549e-01
3.889529e-01
4.024356e-01
4.154127e-01
4.277493e-01
4.393665e-01
4.502139e-01
4.602882e-01
4.692663e-01
4.771928e-01
4.842075e-01
4.903174e-01
4.951246e-01
4.985256e-01
2.275510e-01
2.429520e-01
2.584196e-01
2.739503e-01
2.895063e-01
3.050291e-01
3.204506e-01
3.357018e-01
3.507167e-01
3.654321e-01
3.797804e-01
3.936867e-01
4.070706e-01
4.198493e-01
4.319449e-01
4.432904e-01
4.538158e-01
4.634364e-01
4.720752e-01
4.797360e-01
4.863726e-01
4.919035e-01
4.961672e-01
4.989707e-01
2.282996e-01
2.443667e-01
2.604836e-01
2.766209e-01
2.927158e-01
3.086981e-01
3.244978e-01
3.400462e-01
3.552758e-01
3.915786e-01
3.790929e-01
3.673214e-01
3.576703e-01
3.478250e-01
3.376269e-01
3.270652e-01
3.161410e-01
3.048508e-01
2.931755e-01
2.811064e-01
2.686088e-01
2.556634e-01
2.415882e-01
2.304683e-01
3.701187e-01
3.845048e-01
3.983610e-01
4.116128e-01
4.241885e-01
4.360225e-01
4.470509e-01
4.572082e-01
4.664354e-01
4.746900e-01
4.819322e-01
4.880981e-01
4.931071e-01
4.968500e-01
4.991944e-01
2.289855e-01
2.458628e-01
2.627619e-01
2.795833e-01
2.962449e-01
3.126784e-01
3.288221e-01
3.446161e-01
3.599984e-01
3.749067e-01
3.892777e-01
4.030424e-01
4.161275e-01
4.284645e-01
4.399978e-01
4.506720e-01
4.604334e-01
4.692393e-01
4.770539e-01
4.838297e-01
4.895082e-01
4.940289e-01
4.973250e-01
4.993303e-01
2.298839e-01
2.477603e-01
2.655279e-01
2.830455e-01
3.002413e-01
3.170688e-01
3.334847e-01
3.494485e-01
3.649104e-01
3.798263e-01
3.941430e-01
4.077840e-01
4.206643e-01
4.327126e-01
4.438983e-01
4.541756e-01
4.635022e-01
4.718492e-01
4.791953e-01
4.854896e-01
4.906903e-01
4.947660e-01
4.976855e-01
4.994280e-01
2.314273e-01
2.504444e-01
2.690730e-01
2.872026e-01
3.048397e-01
3.219642e-01
3.385285e-01
3.545501e-01
3.700013e-01
3.848948e-01
3.991481e-01
4.126458e-01
4.252860e-01
4.369686e-01
4.477492e-01
4.575712e-01
4.664324e-01
4.742959e-01
4.811629e-01
4.869639e-01
4.917072e-01
4.953908e-01
4.979899e-01
4.995119e-01
2.336534e-01
2.542086e-01
2.736203e-01
2.921347e-01
3.101739e-01
3.275084e-01
3.439327e-01
3.598010e-01
3.751590e-01
3.901825e-01
4.043623e-01
4.176952e-01
4.301192e-01
4.412810e-01
4.515469e-01
4.607944e-01
4.692899e-01
4.766581e-01
4.830026e-01
4.882443e-01
4.925907e-01
4.959697e-01
4.066306e-01
3.943234e-01
3.806036e-01
3.728420e-01
3.637255e-01
3.540068e-01
3.438290e-01
3.332253e-01
3.222338e-01
3.108816e-01
2.991722e-01
2.870967e-01
2.746706e-01
2.620019e-01
2.499399e-01
2.369770e-01
4.982962e-01
4.996030e-01
2.382664e-01
2.606934e-01
2.786662e-01
2.977114e-01
3.166344e-01
3.342192e-01
3.494939e-01
3.631838e-01
3.806813e-01
3.960140e-01
4.097935e-01
4.228646e-01
4.357529e-01
4.460307e-01
4.546600e-01
4.636314e-01
4.725213e-01
4.793072e-01
4.843921e-01
4.892164e-01
4.933411e-01
4.966407e-01
4.987390e-01
4.996723e-01
4.996762e-01
4.995426e-01
4.985900e-01
4.997028e-01
4.992164e-01
4.981101e-01
4.966485e-01
4.995493e-01
4.986062e-01
4.974156e-01
4.957496e-01
4.938059e-01
4.992626e-01
4.980939e-01
4.965368e-01
4.946761e-01
4.924562e-01
4.900108e-01
4.995707e-01
4.983866e-01
4.973551e-01
4.956207e-01
4.934600e-01
4.909782e-01
4.882106e-01
4.852276e-01
4.795240e-01
4.994222e-01
4.981631e-01
4.964166e-01
4.945412e-01
4.921602e-01
4.893830e-01
4.863094e-01
4.830126e-01
4.730485e-01
4.996956e-01
4.991263e-01
4.977371e-01
4.957744e-01
4.934078e-01
4.907651e-01
4.877118e-01
4.843071e-01
4.806633e-01
4.768873e-01
4.657923e-01
4.995203e-01
4.985238e-01
4.971109e-01
4.950122e-01
4.923837e-01
4.893581e-01
4.859948e-01
4.822657e-01
4.782174e-01
4.740291e-01
4.698529e-01
4.992220e-01
4.980119e-01
4.963078e-01
4.940902e-01
4.912830e-01
4.879845e-01
4.842819e-01
4.802206e-01
4.758181e-01
4.710670e-01
4.663804e-01
4.618932e-01
4.573540e-01
4.472586e-01
4.996178e-01
4.984861e-01
4.973606e-01
4.955045e-01
4.930632e-01
4.900756e-01
4.865595e-01
4.825846e-01
4.781944e-01
4.734466e-01
4.683984e-01
4.627061e-01
4.576942e-01
4.530807e-01
4.095116e-01
4.206083e-01
4.994855e-01
4.984236e-01
4.967214e-01
4.946841e-01
4.920373e-01
4.888147e-01
4.850672e-01
4.808494e-01
4.762065e-01
4.711027e-01
4.656775e-01
4.601912e-01
4.525351e-01
4.480942e-01
4.439278e-01
4.338067e-01
2.122000e-01
2.122000e-01
2.122000e-01
2.122000e-01
2.122000e-01
2.122000e-01
2.122000e-01
2.122000e-01
2.122000e-01
2.122000e-01
2.122000e-01
2.122000e-01
2.122000e-01
2.122000e-01
2.122000e-01
2.122000e-01
2.122000e-01
2.122000e-01
2.122000e-01
2.122000e-01
2.122000e-01
2.122000e-01
2.122000e-01
2.122000e-01
2.122000e-01
2.122000e-01
2.122000e-01
2.122000e-01
2.122000e-01
2.122000e-01
2.122000e-01
2.122000e-01
2.122000e-01
2.122000e-01
2.122000e-01
2.122000e-01
2.122000e-01
2.122000e-01
2.122000e-01
2.122000e-01
2.122000e-01
2.122000e-01
2.122000e-01
2.122000e-01
2.122000e-01
2.122000e-01
2.122000e-01
2.122000e-01
2.122000e-01
2.122000e-01
2.122000e-01
2.122000e-01
2.122000e-01
2.122000e-01
2.122000e-01
2.122000e-01
2.122000e-01
2.122000e-01
2.122000e-01
2.122000e-01
2.122000e-01
2.122000e-01
2.122000e-01
2.122000e-01
2.122000e-01
2.122000e-01
2.122000e-01
2.122000e-01
2.122000e-01
2.122000e-01
2.122000e-01
2.122000e-01
2.122000e-01
2.122000e-01
2.122000e-01
2.122000e-01
2.122000e-01
2.122000e-01
2.122000e-01
2.122000e-01
2.122000e-01
2.122000e-01
2.122000e-01
2.122000e-01
2.122000e-01
2.122000e-01
2.122000e-01
2.122000e-01
2.122000e-01
2.122000e-01
2.122000e-01
2.122000e-01
2.122000e-01
2.122000e-01
2.122000e-01
2.122000e-01
2.122000e-01
2.122000e-01
2.122000e-01
2.122000e-01
2.122000e-01
2.122000e-01
2.122000e-01
2.122000e-01
2.122000e-01
2.122000e-01
2.122000e-01
2.122000e-01
2.122000e-01
2.122000e-01
2.122000e-01
2.122000e-01
2.122000e-01
2.122000e-01
2.122000e-01
2.122000e-01
2.122000e-01
2.122000e-01
2.122000e-01
2.122000e-01
2.122000e-01
2.122000e-01
2.122000e-01
2.122000e-01
2.122000e-01
2.122000e-01
2.122000e-01
2.122000e-01
2.122000e-01
2.122000e-01
2.122000e-01
2.122000e-01
2.122000e-01
2.122000e-01
2.122000e-01
2.122000e-01
2.122000e-01
2.122000e-01
2.122000e-01
2.122000e-01
2.122000e-01
2.122000e-01
2.122000e-01
2.122000e-01
2.122000e-01
2.122000e-01
2.122000e-01
2.122000e-01
2.122000e-01
2.122000e-01
2.122000e-01
2.122000e-01
2.122000e-01
2.122000e-01
2.122000e-01
2.122000e-01
2.122000e-01
2.122000e-01
2.122000e-01
2.122000e-01
2.122000e-01
2.122000e-01
2.122000e-01
2.122000e-01
2.122000e-01
2.122000e-01
2.122000e-01
2.122000e-01
2.122000e-01
2.122000e-01
2.122000e-01
2.122000e-01
2.122000e-01
2.122000e-01
2.122000e-01
2.122000e-01
2.122000e-01
2.122000e-01
2.122000e-01
2.122000e-01
2.122000e-01
2.122000e-01
2.122000e-01
2.122000e-01
2.122000e-01
2.122000e-01
2.122000e-01
2.122000e-01
2.122000e-01
2.122000e-01
2.122000e-01
2.122000e-01
2.122000e-01
2.122000e-01
2.122000e-01
2.122000e-01
2.122000e-01
2.122000e-01
2.122000e-01
2.122000e-01
2.122000e-01
2.122000e-01
2.122000e-01
2.122000e-01
2.122000e-01
2.122000e-01
2.122000e-01
2.122000e-01
2.122000e-01
2.122000e-01
2.122000e-01
2.122000e-01
2.122000e-01
2.122000e-01
2.122000e-01
2.122000e-01
2.122000e-01
2.122000e-01
2.122000e-01
2.122000e-01
2.122000e-01
2.122000e-01
2.122000e-01
2.122000e-01
2.122000e-01
2.122000e-01
2.122000e-01
2.122000e-01
2.122000e-01
2.122000e-01
2.122000e-01
2.122000e-01
2.122000e-01
2.122000e-01
2.122000e-01
2.122000e-01
2.122000e-01
2.122000e-01
2.122000e-01
2.122000e-01
2.122000e-01
2.122000e-01
2.122000e-01
2.122000e-01
2.122000e-01
2.122000e-01
2.122000e-01
2.122000e-01
2.122000e-01
2.122000e-01
2.122000e-01
2.122000e-01
2.122000e-01
2.122000e-01
2.122000e-01
2.122000e-01
2.122000e-01
2.122000e-01
2.122000e-01
2.122000e-01
2.122000e-01
2.122000e-01
2.122000e-01
2.122000e-01
2.122000e-01
2.122000e-01
2.122000e-01
2.122000e-01
2.122000e-01
2.122000e-01
2.122000e-01
2.122000e-01
2.122000e-01
2.122000e-01
2.122000e-01
2.122000e-01
2.122000e-01
2.122000e-01
2.122000e-01
2.122000e-01
2.122000e-01
2.122000e-01
2.122000e-01
2.122000e-01
2.122000e-01
2.122000e-01
2.122000e-01
2.122000e-01
2.122000e-01
2.122000e-01
2.122000e-01
2.122000e-01
2.122000e-01
2.122000e-01
2.122000e-01
2.122000e-01
2.122000e-01
2.122000e-01
2.122000e-01
2.122000e-01
2.122000e-01
2.122000e-01
2.122000e-01
2.122000e-01
2.122000e-01
2.122000e-01
2.122000e-01
2.122000e-01
2.122000e-01
2.122000e-01
2.122000e-01
2.122000e-01
2.122000e-01
2.122000e-01
2.122000e-01
2.122000e-01
2.122000e-01
2.122000e-01
2.122000e-01
2.122000e-01
2.122000e-01
2.122000e-01
2.122000e-01
2.122000e-01
2.122000e-01
2.122000e-01
2.122000e-01
2.122000e-01
2.122000e-01
2.122000e-01
2.122000e-01
2.122000e-01
2.122000e-01
2.122000e-01
2.122000e-01
2.122000e-01
2.122000e-01
2.122000e-01
2.122000e-01
2.122000e-01
2.122000e-01
2.122000e-01
2.122000e-01
2.122000e-01
2.122000e-01
2.122000e-01
2.122000e-01
2.122000e-01
2.122000e-01
2.122000e-01
2.122000e-01
2.122000e-01
2.122000e-01
2.122000e-01
2.122000e-01
2.122000e-01
2.122000e-01
2.122000e-01
2.122000e-01
2.122000e-01
2.122000e-01
2.122000e-01
2.122000e-01
2.122000e-01
2.122000e-01
2.122000e-01
2.122000e-01
2.122000e-01
2.122000e-01
2.122000e-01
3.622000e-01
3.622000e-01
3.622000e-01
3.622000e-01
3.622000e-01
3.622000e-01
3.622000e-01
3.622000e-01
3.622000e-01
3.622000e-01
3.622000e-01
3.622000e-01
3.622000e-01
3.622000e-01
3.622000e-01
3.622000e-01
3.622000e-01
3.622000e-01
3.622000e-01
3.622000e-01
3.622000e-01
3.622000e-01
3.622000e-01
3.622000e-01
3.622000e-01
3.622000e-01
3.622000e-01
3.622000e-01
3.622000e-01
3.622000e-01
3.622000e-01
3.622000e-01
3.622000e-01
3.226563e-01
3.167523e-01
3.321469e-01
3.214451e-01
3.255591e-01
3.137340e-01
3.126490e-01
3.078024e-01
3.036325e-01
3.200372e-01
3.127881e-01
3.069712e-01
3.166347e-01
3.051216e-01
3.131930e-01
2.354759e-01
3.608145e-01
3.586110e-01
3.538809e-01
3.558657e-01
3.543038e-01
3.501047e-01
3.543522e-01
3.515424e-01
3.486861e-01
3.488270e-01
3.453397e-01
3.416571e-01
3.451692e-01
3.414763e-01
3.377795e-01
3.334414e-01
3.585733e-01
3.408991e-01
3.368245e-01
3.326623e-01
3.301396e-01
3.241210e-01
3.188767e-01
3.236196e-01
3.129423e-01
3.368867e-01
3.282578e-01
3.611300e-01
3.180121e-01
3.053916e-01
3.131870e-01
3.074520e-01
3.016746e-01
2.970308e-01
2.944047e-01
2.996356e-01
2.937857e-01
2.889302e-01
2.851487e-01
2.912940e-01
2.841877e-01
2.794919e-01
2.752725e-01
2.724685e-01
2.687354e-01
2.646823e-01
2.572669e-01
2.532790e-01
2.397890e-01
2.834064e-01
2.672630e-01
2.537103e-01
2.429009e-01
2.299641e-01
3.539767e-01
3.502820e-01
3.616582e-01
3.597540e-01
3.608753e-01
3.567326e-01
3.582984e-01
3.547937e-01
3.506381e-01
3.548810e-01
3.579331e-01
3.606650e-01
2.605852e-01
2.485034e-01
2.314732e-01
2.597572e-01
2.432137e-01
2.251854e-01
3.537885e-01
3.501157e-01
3.615998e-01
3.596569e-01
3.607636e-01
3.566648e-01
3.581482e-01
3.546154e-01
3.504495e-01
2.595694e-01
2.478847e-01
2.323403e-01
2.608398e-01
2.438235e-01
2.252980e-01
3.615561e-01
3.595280e-01
3.605922e-01
3.564741e-01
3.578498e-01
3.543413e-01
3.504116e-01
2.614965e-01
2.490537e-01
2.323339e-01
3.613785e-01
3.587757e-01
3.560814e-01
3.540744e-01
3.515563e-01
3.505111e-01
3.440664e-01
2.610025e-01
2.455278e-01
2.263301e-01
2.873222e-01
2.731754e-01
2.579305e-01
2.395018e-01
2.250910e-01
3.542703e-01
3.507406e-01
3.616283e-01
3.597239e-01
3.607788e-01
3.567445e-01
3.581996e-01
3.545956e-01
3.504760e-01
2.629628e-01
2.505054e-01
2.333476e-01
2.605524e-01
2.444841e-01
3.413532e-01
3.484228e-01
3.530043e-01
3.565241e-01
2.256925e-01
3.615777e-01
3.596939e-01
3.569625e-01
2.626739e-01
2.501053e-01
2.322919e-01
3.522117e-01
3.481426e-01
3.613717e-01
3.591194e-01
3.603589e-01
3.558169e-01
3.571979e-01
3.513856e-01
3.528841e-01
3.457148e-01
3.480744e-01
2.824642e-01
2.692358e-01
2.560072e-01
2.429371e-01
2.283340e-01
2.554106e-01
2.400886e-01
2.239118e-01
3.613432e-01
3.588697e-01
3.600002e-01
3.553013e-01
3.568892e-01
3.531256e-01
3.488757e-01
3.306234e-01
2.576378e-01
2.463566e-01
2.303875e-01
3.617080e-01
3.592089e-01
3.557043e-01
3.531434e-01
3.505114e-01
3.492625e-01
3.422125e-01
2.585546e-01
2.430628e-01
2.252223e-01
2.842778e-01
2.705002e-01
2.557432e-01
2.379784e-01
2.242597e-01
3.527738e-01
3.488586e-01
3.614346e-01
3.592353e-01
3.604732e-01
3.559761e-01
3.574791e-01
3.533904e-01
3.488554e-01
2.603618e-01
2.482637e-01
2.318384e-01
2.570498e-01
2.419170e-01
2.245375e-01
3.528707e-01
3.490128e-01
3.614363e-01
3.222455e-01
3.591487e-01
3.604354e-01
3.557590e-01
3.574776e-01
3.536234e-01
3.491901e-01
2.578087e-01
2.457516e-01
2.301108e-01
2.555648e-01
2.406321e-01
2.239022e-01
3.613788e-01
3.589593e-01
3.600587e-01
3.555299e-01
3.566332e-01
3.520778e-01
3.474297e-01
2.564874e-01
2.450875e-01
2.292111e-01
3.611554e-01
3.592319e-01
3.566593e-01
3.510369e-01
3.518650e-01
3.467891e-01
3.436345e-01
2.557049e-01
2.404513e-01
2.237448e-01
2.869372e-01
2.736937e-01
2.540265e-01
2.405137e-01
2.279551e-01
3.612360e-01
3.583155e-01
3.589678e-01
3.393347e-01
3.461160e-01
3.511454e-01
3.548494e-01
3.572000e-01
3.601298e-01
3.541825e-01
3.552438e-01
3.506056e-01
3.457889e-01
2.554869e-01
2.442254e-01
2.292254e-01
3.611766e-01
3.572089e-01
3.509692e-01
3.465129e-01
3.407814e-01
2.559033e-01
2.403726e-01
2.237056e-01
2.279116e-01
3.551967e-01
3.528727e-01
3.489702e-01
3.485153e-01
3.420420e-01
3.405092e-01
3.424231e-01
3.353231e-01
3.271748e-01
3.301104e-01
3.335848e-01
3.355932e-01
3.190605e-01
3.233887e-01
3.272969e-01
3.258634e-01
2.992364e-01
2.898838e-01
2.827726e-01
2.756185e-01
2.673000e-01
2.573386e-01
2.463751e-01
2.381551e-01
2.282204e-01
2.446950e-01
2.501961e-01
2.600431e-01
2.607095e-01
2.766984e-01
2.728996e-01
2.700052e-01
2.866721e-01
2.824682e-01
2.789450e-01
2.867690e-01
2.998135e-01
2.947978e-01
2.905074e-01
3.114690e-01
3.067398e-01
3.016282e-01
2.976117e-01
2.941917e-01
3.192828e-01
3.019557e-01
3.097612e-01
3.132807e-01
3.590358e-01
2.267211e-01
3.609430e-01
3.607735e-01
3.594327e-01
3.571610e-01
3.616133e-01
3.525347e-01
3.504470e-01
3.475384e-01
3.233610e-01
3.295067e-01
3.373876e-01
3.441718e-01
3.495569e-01
3.536289e-01
3.567740e-01
3.596904e-01
3.616702e-01
3.604400e-01
3.582570e-01
3.549576e-01
3.368950e-01
3.614484e-01
3.598390e-01
3.574796e-01
3.540086e-01
3.499370e-01
3.460018e-01
3.419454e-01
3.618584e-01
3.610048e-01
3.587462e-01
3.569900e-01
3.526711e-01
3.482214e-01
3.441256e-01
3.407691e-01
3.341303e-01
3.279637e-01
2.314841e-01
2.226741e-01
2.596933e-01
2.507891e-01
2.395412e-01
2.286018e-01
2.619283e-01
2.473719e-01
2.963150e-01
2.906297e-01
2.811115e-01
2.677079e-01
2.561432e-01
2.450016e-01
2.340313e-01
2.246189e-01
2.810794e-01
2.706585e-01
3.521573e-01
3.464063e-01
3.399865e-01
3.317525e-01
3.218712e-01
3.102366e-01
2.975336e-01
3.615918e-01
3.601445e-01
3.569070e-01
3.518975e-01
3.454813e-01
3.370079e-01
3.279105e-01
3.175563e-01
3.063811e-01
2.967790e-01
2.854083e-01
2.743603e-01
2.620806e-01
2.455026e-01
2.308081e-01
3.086859e-01
3.014225e-01
2.927507e-01
2.823969e-01
2.714547e-01
2.605982e-01
2.496131e-01
2.386823e-01
2.281111e-01
2.237803e-01
3.420260e-01
3.354232e-01
3.264258e-01
3.154000e-01
2.480357e-01
2.425800e-01
2.289085e-01
3.004564e-01
2.868925e-01
2.723663e-01
2.575601e-01
2.422603e-01
2.291671e-01
3.520921e-01
3.463545e-01
3.397311e-01
3.310316e-01
3.210809e-01
3.099545e-01
2.977689e-01
2.840562e-01
2.705215e-01
2.568428e-01
3.614805e-01
3.600427e-01
3.569263e-01
3.525275e-01
3.459033e-01
3.358554e-01
3.262336e-01
3.154952e-01
3.038838e-01
2.928454e-01
3.614721e-01
3.592110e-01
3.559801e-01