VARIABLES = "X" "Y" "Z" "FREF"
ZONE T="instant 012"
STRANDID=0, SOLUTIONTIME=0
Nodes=3151, Elements=6298
ZONETYPE=FETriangle
DATAPACKING=BLOCK
VARLOCATION = ([1-3]=NODAL, [4]=CELLCENTERED)
5.000000e-01
7.400664e-02
9.710073e-02
1.193591e-01
1.406473e-01
1.654252e-01
1.918953e-01
2.194500e-01
2.478329e-01
2.764742e-01
3.047687e-01
3.316461e-01
3.568126e-01
3.808724e-01
4.027258e-01
4.214860e-01
4.369314e-01
4.487179e-01
4.593049e-01
4.699268e-01
4.791110e-01
4.864673e-01
4.919686e-01
4.959565e-01
4.984581e-01
4.997067e-01
5.620000e-02
5.620000e-02
5.620000e-02
5.620000e-02
5.620000e-02
5.620000e-02
5.620000e-02
5.620000e-02
5.620000e-02
5.620000e-02
5.620000e-02
5.620000e-02
2.057249e-01
2.044479e-01
2.019142e-01
1.981672e-01
1.936990e-01
1.894944e-01
1.841795e-01
1.775022e-01
1.700784e-01
1.626321e-01
1.545318e-01
1.451600e-01
1.365520e-01
1.279429e-01
1.190510e-01
1.077459e-01
9.689065e-02
8.825335e-02
7.827141e-02
6.733356e-02
2.062000e-01
4.769403e-01
4.459799e-01
4.199154e-01
3.930361e-01
3.584262e-01
3.247622e-01
2.966114e-01
2.702288e-01
2.439052e-01
2.220961e-01
2.852173e-01
1.071955e-01
9.398723e-02
2.980399e-01
2.770455e-01
1.083179e-01
1.215646e-01
9.984166e-02
1.274457e-01
7.968702e-02
1.319476e-01
1.147284e-01
1.378925e-01
1.537346e-01
4.791393e-01
1.732749e-01
1.962439e-01
1.632797e-01
1.779868e-01
2.090595e-01
2.336451e-01
2.698104e-01
2.489800e-01
2.590547e-01
2.845002e-01
3.149873e-01
2.891461e-01
4.696012e-01
4.539066e-01
3.046446e-01
3.340945e-01
3.284794e-01
3.546849e-01
3.563957e-01
3.681203e-01
2.222552e-01
2.615325e-01
2.428194e-01
2.181318e-01
9.939939e-02
8.273090e-02
7.461183e-02
7.687116e-02
7.721711e-02
9.786505e-02
1.187254e-01
7.815881e-02
9.931969e-02
1.209110e-01
1.430603e-01
6.812553e-02
8.229831e-02
1.013224e-01
1.230835e-01
4.747316e-01
1.451449e-01
1.682365e-01
1.697902e-01
1.940196e-01
1.732759e-01
1.937532e-01
2.197449e-01
7.760093e-02
1.002960e-01
1.236923e-01
1.486026e-01
1.310747e-01
1.307422e-01
1.442823e-01
1.596347e-01
1.908795e-01
2.119125e-01
2.257750e-01
2.451524e-01
7.536820e-02
9.651031e-02
1.200447e-01
1.470046e-01
1.700421e-01
1.898017e-01
2.132524e-01
1.885414e-01
2.073714e-01
2.154059e-01
2.338533e-01
2.532392e-01
2.768168e-01
1.507878e-01
1.695624e-01
1.906270e-01
2.349463e-01
4.666377e-01
4.505934e-01
4.364746e-01
4.197242e-01
2.569367e-01
2.792138e-01
3.042187e-01
1.550525e-01
2.119449e-01
2.341600e-01
2.587818e-01
2.804027e-01
3.035705e-01
3.292552e-01
1.736266e-01
1.949131e-01
2.205250e-01
2.352929e-01
2.585610e-01
2.863897e-01
4.581352e-01
4.392536e-01
4.220574e-01
4.046096e-01
3.840649e-01
3.026601e-01
3.257833e-01
3.522297e-01
2.523042e-01
2.802539e-01
3.176831e-01
3.451738e-01
3.732081e-01
1.744721e-01
1.948009e-01
2.180671e-01
2.448781e-01
3.083476e-01
3.368183e-01
3.645961e-01
3.926765e-01
2.739549e-01
3.023496e-01
3.293497e-01
3.568143e-01
3.834743e-01
4.106797e-01
3.877842e-01
4.086275e-01
1.917481e-01
2.142924e-01
2.392379e-01
2.672537e-01
2.977696e-01
3.265395e-01
3.494201e-01
3.776247e-01
4.015170e-01
4.279988e-01
3.103420e-01
3.259356e-01
4.488449e-01
4.289283e-01
4.104220e-01
3.924951e-01
3.738286e-01
3.544139e-01
3.350098e-01
3.442647e-01
3.633260e-01
3.814915e-01
3.990680e-01
4.185322e-01
4.387383e-01
5.620000e-02
4.995906e-01
4.975830e-01
4.940519e-01
4.889716e-01
4.810071e-01
4.716153e-01
4.598735e-01
4.456845e-01
4.276389e-01
4.076789e-01
3.888883e-01
3.677786e-01
3.434954e-01
3.180323e-01
2.959328e-01
2.765123e-01
2.563280e-01
2.323174e-01
2.062423e-01
1.803615e-01
1.552395e-01
1.311186e-01
1.086101e-01
8.816715e-02
7.045142e-02
5.000000e-01
2.216946e-01
2.434132e-01
2.712358e-01
3.024621e-01
3.320974e-01
3.608696e-01
3.889983e-01
4.201017e-01
4.531280e-01
4.802689e-01
2.062000e-01
6.573676e-02
7.528865e-02
8.645088e-02
9.847547e-02
1.094313e-01
1.196001e-01
1.298504e-01
1.397175e-01
1.485223e-01
1.556040e-01
1.637645e-01
1.711837e-01
1.773415e-01
1.825454e-01
1.874721e-01
1.930852e-01
1.974809e-01
2.002130e-01
2.025028e-01
2.044862e-01
2.057906e-01
5.620000e-02
5.620000e-02
5.620000e-02
5.620000e-02
5.620000e-02
5.620000e-02
5.620000e-02
5.620000e-02
5.620000e-02
5.620000e-02
5.620000e-02
2.744078e-01
3.260732e-01
1.026194e-01
1.347380e-01
1.298497e-01
2.253750e-01
2.377983e-01
2.529712e-01
2.576915e-01
2.856545e-01
2.871925e-01
2.985258e-01
2.804935e-01
3.789095e-01
7.433679e-02
3.482477e-01
3.205418e-01
3.592368e-01
2.990718e-01
3.450645e-01
3.252407e-01
3.707488e-01
3.524858e-01
7.905668e-02
1.211464e-01
1.038679e-01
9.447701e-02
7.992890e-02
1.220866e-01
1.573429e-01
1.243470e-01
1.644706e-01
1.521260e-01
1.860104e-01
1.711703e-01
2.045202e-01
2.266295e-01
7.937713e-02
2.238336e-01
7.633161e-02
8.528709e-02
9.997696e-02
2.139397e-01
2.344895e-01
2.546163e-01
4.706132e-01
4.393506e-01
4.565360e-01
4.701015e-01
3.955923e-01
4.103610e-01
4.251005e-01
4.404536e-01
1.155459e-01
1.006249e-01
7.809204e-02
4.590338e-01
3.941569e-01
4.085334e-01
4.243102e-01
4.502354e-01
3.746435e-01
3.811688e-01
4.236010e-01
4.381422e-01
2.196064e-01
2.328469e-01
2.508594e-01
3.607936e-01
3.825504e-01
4.159125e-01
3.162258e-01
3.500899e-01
3.624272e-01
3.769790e-01
3.896948e-01
3.985693e-01
4.061647e-01
2.004029e-01
2.719598e-01
3.012946e-01
3.358959e-01
3.545258e-01
3.783154e-01
4.039303e-01
2.083619e-01
2.222461e-01
2.402203e-01
3.244693e-01
3.468891e-01
1.382369e-01
1.228934e-01
3.678517e-01
3.887954e-01
1.848570e-01
2.626096e-01
2.898069e-01
3.202326e-01
3.359662e-01
3.539129e-01
3.716487e-01
1.943113e-01
2.085901e-01
2.265763e-01
3.047273e-01
3.220980e-01
3.375172e-01
3.528586e-01
2.469203e-01
1.612857e-01
1.426001e-01
1.218069e-01
1.001862e-01
7.817844e-02
2.681537e-01
2.947851e-01
3.058271e-01
3.191149e-01
3.321838e-01
1.655229e-01
1.768317e-01
1.930998e-01
2.103125e-01
2.745921e-01
2.869941e-01
2.995042e-01
3.102269e-01
2.264206e-01
2.412697e-01
2.548247e-01
2.688327e-01
2.797977e-01
2.875817e-01
7.932993e-02
1.033471e-01
1.350762e-01
1.607642e-01
1.859842e-01
2.111944e-01
2.348934e-01
1.438345e-01
1.558828e-01
1.806657e-01
1.902421e-01
2.047123e-01
2.211246e-01
2.376478e-01
2.538243e-01
2.577330e-01
2.628512e-01
1.855009e-01
1.655003e-01
1.455889e-01
1.252093e-01
1.032893e-01
7.947980e-02
1.931344e-01
2.125760e-01
2.350375e-01
1.521496e-01
1.703735e-01
1.892616e-01
2.102863e-01
5.000000e-01
5.000000e-01
5.000000e-01
5.000000e-01
5.000000e-01
5.000000e-01
5.000000e-01
5.000000e-01
5.000000e-01
5.000000e-01
5.000000e-01
5.000000e-01
5.000000e-01
5.000000e-01
5.000000e-01
5.000000e-01
5.000000e-01
5.000000e-01
5.000000e-01
5.000000e-01
5.000000e-01
5.000000e-01
5.000000e-01
5.000000e-01
5.000000e-01
5.000000e-01
5.000000e-01
5.000000e-01
5.000000e-01
5.000000e-01
5.000000e-01
5.000000e-01
5.000000e-01
5.620000e-02
5.620000e-02
5.620000e-02
5.620000e-02
5.620000e-02
5.620000e-02
5.620000e-02
5.620000e-02
5.620000e-02
5.620000e-02
5.620000e-02
5.620000e-02
5.620000e-02
5.620000e-02
5.620000e-02
5.620000e-02
5.620000e-02
5.620000e-02
5.620000e-02
5.620000e-02
5.620000e-02
5.620000e-02
5.620000e-02
5.620000e-02
5.620000e-02
5.620000e-02
5.620000e-02
5.620000e-02
5.620000e-02
5.620000e-02
5.620000e-02
5.620000e-02
5.620000e-02
3.386353e-01
3.539834e-01
3.466052e-01
3.611530e-01
3.759087e-01
3.828088e-01
3.565012e-01
3.682820e-01
2.860730e-01
3.007509e-01
3.120656e-01
3.140177e-01
3.244758e-01
3.323065e-01
3.418434e-01
3.745327e-01
3.520535e-01
3.395588e-01
3.617390e-01
3.830552e-01
3.276923e-01
3.282703e-01
8.254187e-02
7.201571e-02
3.477560e-01
3.694610e-01
3.904871e-01
3.669599e-01
3.814183e-01
3.955757e-01
3.865983e-01
3.996051e-01
4.041686e-01
4.290627e-01
3.647451e-01
3.809554e-01
3.560421e-01
3.891471e-01
3.676161e-01
3.453332e-01
3.966623e-01
3.756485e-01
3.565731e-01
3.368371e-01
3.951528e-01
4.106975e-01
4.064070e-01
3.905471e-01
3.779968e-01
1.050977e-01
9.128097e-02
7.597849e-02
3.286734e-01
3.437815e-01
3.565119e-01
3.181661e-01
3.325138e-01
3.072785e-01
7.448987e-02
8.908685e-02
9.323595e-02
1.087715e-01
1.140930e-01
1.270750e-01
1.316272e-01
1.370121e-01
1.378577e-01
1.482863e-01
1.552895e-01
1.613631e-01
1.625220e-01
1.723718e-01
1.800669e-01
1.865748e-01
1.784159e-01
1.887651e-01
1.978581e-01
2.055542e-01
2.121625e-01
1.956150e-01
2.055401e-01
2.151490e-01
2.237381e-01
2.311676e-01
2.376219e-01
2.112182e-01
1.279519e-01
1.134764e-01
9.849955e-02
8.352054e-02
7.329911e-02
2.219224e-01
2.320365e-01
2.412827e-01
2.494226e-01
2.563851e-01
2.624746e-01
2.366793e-01
2.480263e-01
2.580853e-01
2.669343e-01
2.745814e-01
2.807257e-01
2.862520e-01
2.509375e-01
2.628883e-01
2.740300e-01
2.835626e-01
2.918896e-01
2.992479e-01
3.034458e-01
3.084958e-01
2.638380e-01
2.763902e-01
2.886084e-01
2.999211e-01
3.078055e-01
3.159683e-01
3.252989e-01
3.222860e-01
3.299494e-01
3.434424e-01
3.992786e-01
3.166475e-01
3.367480e-01
3.594321e-01
1.518945e-01
1.372642e-01
1.220972e-01
1.072010e-01
9.387911e-02
8.161724e-02
3.822496e-01
3.031802e-01
3.257709e-01
3.496867e-01
3.730362e-01
3.923712e-01
4.090072e-01
3.508748e-01
3.650016e-01
3.710252e-01
3.797132e-01
3.868195e-01
3.950545e-01
4.032676e-01
4.113311e-01
4.120372e-01
4.156956e-01
4.196461e-01
4.233854e-01
4.265217e-01
4.300006e-01
3.940690e-01
4.052758e-01
4.138936e-01
4.219908e-01
4.298087e-01
4.358728e-01
4.395720e-01
4.094692e-01
4.147369e-01
4.226506e-01
4.316423e-01
4.386910e-01
4.439211e-01
4.481578e-01
4.257187e-01
4.407136e-01
4.389730e-01
4.493182e-01
4.521389e-01
4.560049e-01
4.601096e-01
4.633629e-01
4.387022e-01
4.549913e-01
4.640104e-01
4.696936e-01
4.512078e-01
4.646098e-01
4.703565e-01
4.751251e-01
4.712104e-01
4.807227e-01
1.774020e-01
1.622946e-01
1.468056e-01
1.313640e-01
1.165190e-01
1.021495e-01
8.625959e-02
7.441295e-02
4.777704e-01
4.859029e-01
4.802253e-01
4.869293e-01
4.937002e-01
4.976567e-01
4.946310e-01
4.906149e-01
4.901822e-01
4.857727e-01
4.840776e-01
4.847805e-01
4.765442e-01
4.773289e-01
4.784717e-01
4.799645e-01
4.677457e-01
4.682962e-01
4.695190e-01
4.712107e-01
4.732342e-01
4.576121e-01
4.588716e-01
4.607673e-01
4.631042e-01
4.657041e-01
4.543322e-01
4.575176e-01
4.449208e-01
4.464453e-01
4.485627e-01
4.512654e-01
4.305962e-01
4.322168e-01
4.344902e-01
4.375858e-01
4.412933e-01
4.451253e-01
4.487553e-01
4.153721e-01
4.163861e-01
4.184562e-01
4.218241e-01
4.263098e-01
4.313645e-01
4.356292e-01
4.391997e-01
3.811667e-01
3.815106e-01
3.992898e-01
4.004734e-01
4.035461e-01
4.089992e-01
4.153436e-01
4.226837e-01
4.242034e-01
4.290216e-01
3.797711e-01
3.957681e-01
3.676309e-01
1.215364e-01
1.549540e-01
1.348615e-01
1.604770e-01
1.497503e-01
1.868535e-01
1.777755e-01
1.666381e-01
2.214394e-01
2.066436e-01
2.040174e-01
1.882942e-01
1.724259e-01
1.565521e-01
1.408661e-01
1.254401e-01
1.100775e-01
9.577527e-02
8.262713e-02
1.949395e-01
1.836482e-01
2.508968e-01
2.368547e-01
2.236684e-01
2.117663e-01
2.005340e-01
2.662440e-01
2.524819e-01
2.399309e-01
2.282932e-01
2.172458e-01
2.947409e-01
2.805652e-01
2.676962e-01
2.558080e-01
2.445851e-01
2.337685e-01
3.214116e-01
3.074883e-01
2.945601e-01
2.826635e-01
2.714893e-01
2.607007e-01
2.500735e-01
3.453028e-01
3.331476e-01
3.201759e-01
3.084496e-01
2.975784e-01
2.871209e-01
2.766488e-01
2.660647e-01
3.645917e-01
3.595214e-01
3.442035e-01
3.328503e-01
3.223888e-01
3.127196e-01
3.028001e-01
2.922849e-01
2.815370e-01
4.202480e-01
4.063159e-01
3.889730e-01
3.691224e-01
3.461310e-01
3.213592e-01
2.961776e-01
4.015841e-01
3.831177e-01
3.615528e-01
3.345049e-01
3.094889e-01
7.428551e-02
7.362484e-02
7.702541e-02
9.450918e-02
9.005880e-02
1.015016e-01
1.166053e-01
7.540037e-02
9.286170e-02
1.091290e-01
1.241990e-01
1.400059e-01
7.778455e-02
9.646401e-02
1.142034e-01
1.312340e-01
1.480121e-01
1.646454e-01
2.312678e-01
2.148821e-01
1.986458e-01
1.824772e-01
1.663793e-01
1.503547e-01
1.344382e-01
1.188918e-01
1.036992e-01
8.729490e-02
7.421700e-02
7.220727e-02
8.379235e-02
1.011253e-01
1.192960e-01
1.373686e-01
1.552539e-01
1.729740e-01
1.902759e-01
7.052781e-02
7.575207e-02
9.180494e-02
1.073561e-01
1.249016e-01
1.432593e-01
1.618214e-01
1.803455e-01
1.987721e-01
2.168321e-01
8.125766e-02
9.721313e-02
1.139084e-01
1.310228e-01
1.491294e-01
1.679054e-01
1.869248e-01
2.059303e-01
2.250089e-01
2.452103e-01
2.667469e-01
7.247916e-02
8.760113e-02
1.026115e-01
1.197650e-01
1.373796e-01
1.550299e-01
1.734993e-01
1.928117e-01
2.121707e-01
2.313386e-01
2.504526e-01
2.694912e-01
2.855510e-01
7.362647e-02
9.084117e-02
1.066998e-01
1.246181e-01
1.437516e-01
1.616039e-01
1.785329e-01
1.977139e-01
2.177566e-01
2.370431e-01
2.560958e-01
2.746431e-01
2.925090e-01
3.065445e-01
6.543818e-02
7.566268e-02
9.198311e-02
1.120563e-01
1.260193e-01
1.492101e-01
1.692154e-01
1.859870e-01
1.995954e-01
2.228729e-01
2.421946e-01
2.612507e-01
2.801475e-01
2.974049e-01
3.177398e-01
3.268656e-01
2.586754e-01
2.415524e-01
2.250276e-01
2.087616e-01
1.925281e-01
1.762351e-01
1.599218e-01
1.436675e-01
1.275238e-01
1.113317e-01
9.559935e-02
7.877993e-02
4.990122e-01
4.996588e-01
4.967013e-01
4.984284e-01
4.995734e-01
4.931279e-01
4.960200e-01
4.981349e-01
4.995060e-01
4.838428e-01
4.885549e-01
4.924398e-01
4.955595e-01
4.979234e-01
4.994512e-01
4.660766e-01
4.763479e-01
4.827466e-01
4.876932e-01
4.917989e-01
4.951539e-01
4.977198e-01
4.993916e-01
4.700247e-01
4.761327e-01
4.818063e-01
4.868273e-01
4.911377e-01
4.947057e-01
4.974657e-01
4.993040e-01
4.547490e-01
4.616204e-01
4.682490e-01
4.747249e-01
4.806136e-01
4.858356e-01
4.903495e-01
4.941110e-01
4.970579e-01
4.991046e-01
4.996223e-01
4.417625e-01
4.510464e-01
4.589845e-01
4.663403e-01
4.731138e-01
4.792215e-01
4.846334e-01
4.893157e-01
4.932127e-01
4.962199e-01
4.981606e-01
4.994846e-01
4.160288e-01
4.282634e-01
4.390369e-01
4.482917e-01
4.566433e-01
4.643046e-01
4.712803e-01
4.775558e-01
4.831147e-01
4.879283e-01
4.919562e-01
4.951586e-01
4.976498e-01
4.993588e-01
3.818964e-01
3.997923e-01
4.141648e-01
4.260697e-01
4.363344e-01
4.456410e-01
2.858622e-01
2.677403e-01
2.509789e-01
2.349434e-01
2.188868e-01
2.026234e-01
1.861841e-01
1.696402e-01
1.530501e-01
1.364235e-01
1.199572e-01
1.035897e-01
8.811797e-02
4.541901e-01
4.620103e-01
4.691129e-01
4.755061e-01
4.811734e-01
4.861257e-01
4.904145e-01
4.940855e-01
4.971520e-01
4.992180e-01
7.530906e-02
9.577730e-02
1.179426e-01
1.416909e-01
1.666483e-01
1.922362e-01
2.179702e-01
2.433965e-01
2.681254e-01
2.918770e-01
3.146453e-01
3.365814e-01
3.576430e-01
3.780861e-01
3.970897e-01
4.142492e-01
4.296894e-01
4.442010e-01
4.585414e-01
4.677632e-01
4.765878e-01
4.858843e-01
4.921369e-01
4.968900e-01
3.662793e-01
3.861839e-01
3.996506e-01
4.125122e-01
4.232514e-01
4.333415e-01
4.427697e-01
4.514266e-01
4.593034e-01
4.664869e-01
4.729550e-01
4.786567e-01
4.837855e-01
4.884936e-01
4.925669e-01
4.968258e-01
4.987749e-01
7.656933e-02
9.814018e-02
1.212698e-01
1.458105e-01
1.713419e-01
1.973001e-01
2.232287e-01
2.487317e-01
2.735130e-01
2.974081e-01
3.203730e-01
3.423774e-01
3.633650e-01
3.831970e-01
4.015934e-01
4.184897e-01
4.339409e-01
4.480404e-01
4.602589e-01
4.707764e-01
4.800009e-01
4.878470e-01
4.939307e-01
4.981994e-01
7.770466e-02
1.002782e-01
1.242927e-01
1.495802e-01
1.756671e-01
2.020001e-01
2.281524e-01
2.537822e-01
2.786532e-01
3.026255e-01
3.256149e-01
3.475405e-01
3.683005e-01
3.877677e-01
4.058301e-01
4.224424e-01
4.375689e-01
4.511244e-01
4.630416e-01
4.734327e-01
4.823001e-01
4.895708e-01
4.951078e-01
4.987048e-01
7.876845e-02
1.022966e-01
1.271969e-01
1.532327e-01
1.798726e-01
2.065728e-01
2.329425e-01
2.586883e-01
2.836125e-01
3.128075e-01
2.930787e-01
2.755664e-01
2.605037e-01
2.450608e-01
2.291329e-01
2.128376e-01
1.962890e-01
1.795757e-01
1.627549e-01
1.458850e-01
1.290734e-01
1.123248e-01
9.430716e-02
7.929207e-02
3.075888e-01
3.305218e-01
3.523127e-01
3.728534e-01
3.920435e-01
4.098088e-01
4.260952e-01
4.408488e-01
4.540274e-01
4.656288e-01
4.756624e-01
4.840898e-01
4.908509e-01
4.958495e-01
4.989474e-01
7.975081e-02
1.043533e-01
1.302414e-01
1.570583e-01
1.842354e-01
2.112665e-01
2.378084e-01
2.636168e-01
2.885342e-01
3.124628e-01
3.353086e-01
3.569557e-01
3.772863e-01
3.962068e-01
4.136581e-01
4.295899e-01
4.439630e-01
4.567595e-01
4.679727e-01
4.775782e-01
4.855395e-01
4.918171e-01
4.963547e-01
4.990922e-01
8.092508e-02
1.068381e-01
1.338153e-01
1.613954e-01
1.890458e-01
2.163379e-01
2.429640e-01
2.687383e-01
2.935762e-01
3.174405e-01
3.402099e-01
3.617173e-01
3.818275e-01
4.004434e-01
4.175341e-01
4.330602e-01
4.470131e-01
4.593843e-01
4.701569e-01
4.792892e-01
4.867735e-01
4.926026e-01
4.967478e-01
4.992004e-01
8.283855e-02
1.103112e-01
1.383672e-01
1.665456e-01
1.945715e-01
2.220574e-01
2.485983e-01
2.741453e-01
2.988390e-01
3.227342e-01
3.454768e-01
3.668303e-01
3.866996e-01
4.049355e-01
4.215702e-01
4.365832e-01
4.500897e-01
4.620085e-01
4.722826e-01
4.808723e-01
4.878779e-01
4.933108e-01
4.971112e-01
4.993044e-01
8.600486e-02
1.155179e-01
1.442220e-01
1.725613e-01
2.011045e-01
2.288139e-01
2.547991e-01
2.795728e-01
3.043577e-01
3.287141e-01
3.513608e-01
3.724487e-01
3.921727e-01
4.098989e-01
4.257900e-01
4.400610e-01
4.533591e-01
4.648194e-01
4.744063e-01
4.822911e-01
4.888904e-01
4.940423e-01
3.391807e-01
3.192751e-01
2.967120e-01
2.849878e-01
2.707821e-01
2.554765e-01
2.395414e-01
2.232089e-01
2.066151e-01
1.898376e-01
1.729257e-01
1.559309e-01
1.389571e-01
1.222975e-01
1.065469e-01
9.024546e-02
4.975297e-01
4.994288e-01
9.279608e-02
1.244225e-01
1.500744e-01
1.792778e-01
2.093552e-01
2.375028e-01
2.612888e-01
2.818633e-01
3.112989e-01
3.360352e-01
3.579095e-01
3.783153e-01
3.991465e-01
4.160038e-01
4.290996e-01
4.431873e-01
4.575785e-01
4.683474e-01
4.759625e-01
4.833850e-01
4.897913e-01
4.950026e-01
4.981648e-01
4.995303e-01
4.994844e-01
4.992038e-01
4.977313e-01
4.995071e-01
4.985931e-01
4.968214e-01
4.945537e-01
4.991908e-01
4.976733e-01
4.956171e-01
4.929449e-01
4.898460e-01
4.985007e-01
4.966618e-01
4.941725e-01
4.910975e-01
4.875064e-01
4.835096e-01
4.992608e-01
4.971362e-01
4.953185e-01
4.925384e-01
4.890495e-01
4.849827e-01
4.804380e-01
4.754638e-01
4.658207e-01
4.989775e-01
4.968185e-01
4.939655e-01
4.907682e-01
4.868584e-01
4.823121e-01
4.772366e-01
4.717281e-01
4.549199e-01
4.994726e-01
4.984078e-01
4.960836e-01
4.928571e-01
4.890102e-01
4.845970e-01
4.795494e-01
4.739280e-01
4.678474e-01
4.614538e-01
4.428206e-01
4.991839e-01
4.975243e-01
4.950572e-01
4.915730e-01
4.872800e-01
4.823275e-01
4.767510e-01
4.705713e-01
4.638662e-01
4.568056e-01
4.496713e-01
4.986263e-01
4.966822e-01
4.938600e-01
4.901158e-01
4.854682e-01
4.800514e-01
4.739575e-01
4.672279e-01
4.599033e-01
4.520604e-01
4.440125e-01
4.362594e-01
4.287783e-01
4.121015e-01
4.993967e-01
4.975386e-01
4.956639e-01
4.926288e-01
4.885775e-01
4.835857e-01
4.777506e-01
4.711806e-01
4.639386e-01
4.560509e-01
4.475360e-01
4.382493e-01
4.292238e-01
4.213188e-01
3.476103e-01
3.636168e-01
4.991997e-01
4.975432e-01
4.948358e-01
4.914667e-01
4.870818e-01
4.817121e-01
4.754530e-01
4.684219e-01
4.607122e-01
4.523316e-01
4.432858e-01
4.336567e-01
4.206961e-01
4.128901e-01
4.063210e-01
3.886695e-01
5.620000e-02
5.620000e-02
5.620000e-02
5.620000e-02
5.620000e-02
5.620000e-02
5.620000e-02
5.620000e-02
5.620000e-02
5.620000e-02
5.620000e-02
5.620000e-02
5.620000e-02
5.620000e-02
5.620000e-02
5.620000e-02
5.620000e-02
5.620000e-02
5.620000e-02
5.620000e-02
5.620000e-02
5.620000e-02
5.620000e-02
5.620000e-02
5.620000e-02
5.620000e-02
5.620000e-02
5.620000e-02
5.620000e-02
5.620000e-02
5.620000e-02
5.620000e-02
5.620000e-02
5.620000e-02
5.620000e-02
5.620000e-02
5.620000e-02
5.620000e-02
5.620000e-02
5.620000e-02
5.620000e-02
5.620000e-02
5.620000e-02
5.620000e-02
5.620000e-02
5.620000e-02
5.620000e-02
5.620000e-02
5.620000e-02
5.620000e-02
5.620000e-02
5.620000e-02
5.620000e-02
5.620000e-02
5.620000e-02
5.620000e-02
5.620000e-02
5.620000e-02
5.620000e-02
5.620000e-02
5.620000e-02
5.620000e-02
5.620000e-02
5.620000e-02
5.620000e-02
5.620000e-02
5.620000e-02
5.620000e-02
5.620000e-02
5.620000e-02
5.620000e-02
5.620000e-02
5.620000e-02
5.620000e-02
5.620000e-02
5.620000e-02
5.620000e-02
5.620000e-02
5.620000e-02
5.620000e-02
5.620000e-02
5.620000e-02
5.620000e-02
5.620000e-02
5.620000e-02
5.620000e-02
5.620000e-02
5.620000e-02
5.620000e-02
5.620000e-02
5.620000e-02
5.620000e-02
5.620000e-02
5.620000e-02
5.620000e-02
5.620000e-02
5.620000e-02
5.620000e-02
5.620000e-02
5.620000e-02
5.620000e-02
5.620000e-02
5.620000e-02
5.620000e-02
5.620000e-02
5.620000e-02
5.620000e-02
5.620000e-02
5.620000e-02
5.620000e-02
5.620000e-02
5.620000e-02
5.620000e-02
5.620000e-02
5.620000e-02
5.620000e-02
5.620000e-02
5.620000e-02
5.620000e-02
5.620000e-02
5.620000e-02
5.620000e-02
5.620000e-02
5.620000e-02
5.620000e-02
5.620000e-02
5.620000e-02
5.620000e-02
5.620000e-02
5.620000e-02
5.620000e-02
5.620000e-02
5.620000e-02
5.620000e-02
5.620000e-02
5.620000e-02
5.620000e-02
5.620000e-02
5.620000e-02
5.620000e-02
5.620000e-02
5.620000e-02
5.620000e-02
5.620000e-02
5.620000e-02
5.620000e-02
5.620000e-02
5.620000e-02
5.620000e-02
5.620000e-02
5.620000e-02
5.620000e-02
5.620000e-02
5.620000e-02
5.620000e-02
5.620000e-02
5.620000e-02
5.620000e-02
5.620000e-02
5.620000e-02
5.620000e-02
5.620000e-02
5.620000e-02
5.620000e-02
5.620000e-02
5.620000e-02
5.620000e-02
5.620000e-02
5.620000e-02
5.620000e-02
5.620000e-02
5.620000e-02
5.620000e-02
5.620000e-02
5.620000e-02
5.620000e-02
5.620000e-02
5.620000e-02
5.620000e-02
5.620000e-02
5.620000e-02
5.620000e-02
5.620000e-02
5.620000e-02
5.620000e-02
5.620000e-02
5.620000e-02
5.620000e-02
5.620000e-02
5.620000e-02
5.620000e-02
5.620000e-02
5.620000e-02
5.620000e-02
5.620000e-02
5.620000e-02
5.620000e-02
5.620000e-02
5.620000e-02
5.620000e-02
5.620000e-02
5.620000e-02
5.620000e-02
5.620000e-02
5.620000e-02
5.620000e-02
5.620000e-02
5.620000e-02
5.620000e-02
5.620000e-02
5.620000e-02
5.620000e-02
5.620000e-02
5.620000e-02
5.620000e-02
5.620000e-02
5.620000e-02
5.620000e-02
5.620000e-02
5.620000e-02
5.620000e-02
5.620000e-02
5.620000e-02
5.620000e-02
5.620000e-02
5.620000e-02
5.620000e-02
5.620000e-02
5.620000e-02
5.620000e-02
5.620000e-02
5.620000e-02
5.620000e-02
5.620000e-02
5.620000e-02
5.620000e-02
5.620000e-02
5.620000e-02
5.620000e-02
5.620000e-02
5.620000e-02
5.620000e-02
5.620000e-02
5.620000e-02
5.620000e-02
5.620000e-02
5.620000e-02
5.620000e-02
5.620000e-02
5.620000e-02
5.620000e-02
5.620000e-02
5.620000e-02
5.620000e-02
5.620000e-02
5.620000e-02
5.620000e-02
5.620000e-02
5.620000e-02
5.620000e-02
5.620000e-02
5.620000e-02
5.620000e-02
5.620000e-02
5.620000e-02
5.620000e-02
5.620000e-02
5.620000e-02
5.620000e-02
5.620000e-02
5.620000e-02
5.620000e-02
5.620000e-02
5.620000e-02
5.620000e-02
5.620000e-02
5.620000e-02
5.620000e-02
5.620000e-02
5.620000e-02
5.620000e-02
5.620000e-02
5.620000e-02
5.620000e-02
5.620000e-02
5.620000e-02
5.620000e-02
5.620000e-02
5.620000e-02
5.620000e-02
5.620000e-02
5.620000e-02
5.620000e-02
5.620000e-02
5.620000e-02
5.620000e-02
5.620000e-02
5.620000e-02
5.620000e-02
5.620000e-02
5.620000e-02
5.620000e-02
5.620000e-02
5.620000e-02
5.620000e-02
5.620000e-02
5.620000e-02
5.620000e-02
5.620000e-02
5.620000e-02
5.620000e-02
5.620000e-02
5.620000e-02
5.620000e-02
5.620000e-02
5.620000e-02
5.620000e-02
5.620000e-02
5.620000e-02
5.620000e-02
5.620000e-02
5.620000e-02
5.620000e-02
5.620000e-02
5.620000e-02
5.620000e-02
5.620000e-02
5.620000e-02
5.620000e-02
5.620000e-02
5.620000e-02
5.620000e-02
5.620000e-02
5.620000e-02
5.620000e-02
5.620000e-02
5.620000e-02
5.620000e-02
5.620000e-02
5.620000e-02
5.620000e-02
5.620000e-02
5.620000e-02
5.620000e-02
5.620000e-02
5.620000e-02
5.620000e-02
5.620000e-02
5.620000e-02
5.620000e-02
5.620000e-02
5.620000e-02
5.620000e-02
5.620000e-02
5.620000e-02
5.620000e-02
5.620000e-02
5.620000e-02
5.620000e-02
5.620000e-02
5.620000e-02
5.620000e-02
5.620000e-02
5.620000e-02
5.620000e-02
5.620000e-02
5.620000e-02
5.620000e-02
5.620000e-02
5.620000e-02
2.062000e-01
2.062000e-01
2.062000e-01
2.062000e-01
2.062000e-01
2.062000e-01
2.062000e-01
2.062000e-01
2.062000e-01
2.062000e-01
2.062000e-01
2.062000e-01
2.062000e-01
2.062000e-01
2.062000e-01
2.062000e-01
2.062000e-01
2.062000e-01
2.062000e-01
2.062000e-01
2.062000e-01
2.062000e-01
2.062000e-01
2.062000e-01
2.062000e-01
2.062000e-01
2.062000e-01
2.062000e-01
2.062000e-01
2.062000e-01
2.062000e-01
2.062000e-01
2.062000e-01
1.611036e-01
1.541749e-01
1.716536e-01
1.583066e-01
1.640541e-01
1.504170e-01
1.495939e-01
1.435481e-01
1.389639e-01
1.646996e-01
1.589916e-01
1.534036e-01
1.643302e-01
1.525070e-01
1.621068e-01
7.404319e-02
2.045205e-01
2.018877e-01
1.963507e-01
1.987746e-01
1.968398e-01
1.914913e-01
1.969953e-01
1.934800e-01
1.899786e-01
1.904585e-01
1.861650e-01
1.816832e-01
1.865354e-01
1.818141e-01
1.773425e-01
1.720003e-01
2.034478e-01
1.817603e-01
1.765909e-01
1.713519e-01
1.681163e-01
1.610320e-01
1.584920e-01
1.630409e-01
1.510738e-01
1.772128e-01
1.675295e-01
2.055034e-01
1.559731e-01
1.417964e-01
1.490054e-01
1.430858e-01
1.365036e-01
1.311288e-01
1.286103e-01
1.345305e-01
1.277605e-01
1.223976e-01
1.183454e-01
1.248380e-01
1.168481e-01
1.127283e-01
1.083973e-01
1.055526e-01
1.022719e-01
9.850024e-02
9.149091e-02
8.863724e-02
7.789474e-02
1.175999e-01
1.013373e-01
8.822929e-02
7.767756e-02
6.648445e-02
1.964966e-01
1.915952e-01
2.055762e-01
2.033564e-01
2.047460e-01
1.998270e-01
2.017478e-01
1.975066e-01
1.920229e-01
2.004434e-01
2.032767e-01
2.053702e-01
9.425778e-02
8.157111e-02
6.776802e-02
9.372361e-02
7.861875e-02
6.465703e-02
1.963754e-01
1.914763e-01
2.056039e-01
2.034114e-01
2.047254e-01
1.998844e-01
2.017055e-01
1.974194e-01
1.918908e-01
9.373485e-02
8.131902e-02
6.771823e-02
9.439844e-02
7.906146e-02
6.479594e-02
2.055867e-01
2.033398e-01
2.045834e-01
1.997525e-01
2.013817e-01
1.970536e-01
1.918176e-01
9.499569e-02
8.206533e-02
6.781115e-02
2.053800e-01
2.024174e-01
1.989878e-01
1.966626e-01
1.931571e-01
1.919165e-01
1.841741e-01
9.409502e-02
7.979085e-02
6.557886e-02
1.207457e-01
1.066440e-01
9.211026e-02
7.614207e-02
6.450148e-02
1.971753e-01
1.925656e-01
2.056033e-01
2.034440e-01
2.047458e-01
2.000529e-01
2.017801e-01
1.974726e-01
1.921773e-01
9.655356e-02
8.337355e-02
6.890621e-02
9.424466e-02
7.946073e-02
1.908251e-01
1.955690e-01
1.993242e-01
2.024940e-01
6.512150e-02
2.056427e-01
2.035637e-01
2.004833e-01
9.675355e-02
8.381372e-02
6.828032e-02
1.955708e-01
1.903847e-01
2.054814e-01
2.031688e-01
2.045437e-01
1.994038e-01
2.011479e-01
1.939700e-01
1.962017e-01
1.870826e-01
1.901618e-01
1.170485e-01
1.037392e-01
9.020877e-02
7.803956e-02
6.602444e-02
9.143131e-02
7.700433e-02
6.413508e-02
2.055145e-01
2.030756e-01
2.043860e-01
1.992414e-01
2.010062e-01
1.966922e-01
1.913532e-01
1.818680e-01
9.296493e-02
8.139173e-02
6.734788e-02
2.057632e-01
2.032813e-01
1.993816e-01
1.966309e-01
1.932242e-01
1.917999e-01
1.839083e-01
9.444008e-02
7.934091e-02
6.536120e-02
1.203720e-01
1.063879e-01
9.202568e-02
7.610326e-02
6.447160e-02
1.963714e-01
1.914710e-01
2.055521e-01
2.033576e-01
2.046839e-01
1.999611e-01
2.015846e-01
1.970868e-01
1.916030e-01
9.604543e-02
8.303813e-02
6.874271e-02
9.284374e-02
7.861355e-02
6.476161e-02
1.966894e-01
1.918206e-01
2.055843e-01
1.738756e-01
2.033571e-01
2.047227e-01
1.998086e-01
2.017227e-01
1.974595e-01
1.919320e-01
9.430988e-02
8.144046e-02
6.745880e-02
9.201017e-02
7.801092e-02
6.450044e-02
2.055840e-01
2.033457e-01
2.045067e-01
1.998539e-01
2.010756e-01
1.961917e-01
1.907412e-01
9.303827e-02
8.123595e-02
6.722468e-02
2.055254e-01
2.036499e-01
2.009142e-01
1.960416e-01
1.959014e-01
1.911632e-01
1.868458e-01
9.315685e-02
7.840680e-02
6.477414e-02
1.247254e-01
1.105503e-01
9.269511e-02
7.876528e-02
6.668871e-02
2.055441e-01
2.032227e-01
2.043742e-01
1.882704e-01
1.935157e-01
1.978215e-01
2.011643e-01
2.032757e-01
2.053873e-01
1.995809e-01
2.009962e-01
1.964857e-01
1.912395e-01
9.286443e-02
8.061052e-02
6.751902e-02
2.056795e-01
2.028126e-01
1.975227e-01
1.927243e-01
1.863039e-01
9.371743e-02
7.902622e-02
6.485207e-02
6.870674e-02
2.013602e-01
1.992606e-01
1.954955e-01
1.949515e-01
1.890560e-01
1.876449e-01
1.895960e-01
1.820443e-01
1.730412e-01
1.769336e-01
1.811374e-01
1.835309e-01
1.645842e-01
1.703607e-01
1.750826e-01
1.747141e-01
1.496759e-01
1.378908e-01
1.282684e-01
1.185881e-01
1.081289e-01
9.630801e-02
8.484830e-02
7.734175e-02
6.787634e-02
8.345204e-02
8.913179e-02
9.933243e-02
9.995113e-02
1.163008e-01
1.128505e-01
1.102786e-01
1.277416e-01
1.239414e-01
1.210276e-01
1.309444e-01
1.420840e-01
1.376064e-01
1.338481e-01
1.549192e-01
1.510334e-01
1.463242e-01
1.428583e-01
1.406074e-01
1.692514e-01
1.503032e-01
1.593447e-01
1.642042e-01
2.046718e-01
6.703627e-02
2.050367e-01
2.048172e-01
2.033744e-01
2.014536e-01
2.056592e-01
1.964206e-01
1.938620e-01
1.906840e-01
1.740812e-01
1.796058e-01
1.857595e-01
1.915158e-01
1.962305e-01
1.999923e-01
2.029733e-01
2.050574e-01
2.056400e-01
2.043736e-01
2.019581e-01
1.988133e-01
1.785258e-01
2.053808e-01
2.035997e-01
2.009171e-01
1.972126e-01
1.929296e-01
1.884866e-01
1.840089e-01
2.058388e-01
2.048238e-01
2.022748e-01
2.001999e-01
1.951830e-01
1.904885e-01
1.859208e-01
1.820265e-01
1.744630e-01
1.685741e-01
7.293489e-02
6.455004e-02
9.510475e-02
8.634441e-02
7.525452e-02
6.705276e-02
9.927569e-02
8.487393e-02
1.337875e-01
1.266818e-01
1.160542e-01
1.020553e-01
9.042844e-02
8.057548e-02
7.152878e-02
6.489585e-02
1.178270e-01
1.063012e-01
1.940973e-01
1.870011e-01
1.792340e-01
1.695139e-01
1.581811e-01
1.453832e-01
1.316842e-01
2.055032e-01
2.036742e-01
1.999684e-01
1.938333e-01
1.858490e-01
1.760241e-01
1.653462e-01
1.537505e-01
1.418461e-01
1.311025e-01
1.184346e-01
1.077098e-01
9.532969e-02
8.102940e-02
6.932015e-02
1.471207e-01
1.385879e-01
1.281675e-01
1.159854e-01
1.047003e-01
9.448944e-02
8.504064e-02
7.660759e-02
6.797307e-02
6.469938e-02
1.816539e-01
1.736133e-01
1.631624e-01
1.506075e-01
8.713778e-02
8.065541e-02
6.908283e-02
1.347733e-01
1.207730e-01
1.065076e-01
9.140231e-02
7.755531e-02
6.678890e-02
1.940348e-01
1.868359e-01
1.788499e-01
1.687222e-01
1.572992e-01
1.448077e-01
1.314326e-01
1.172290e-01
1.044668e-01
9.053779e-02
2.054479e-01
2.037385e-01
2.001537e-01
1.945325e-01
1.859789e-01
1.745465e-01
1.632389e-01
1.510753e-01
1.384258e-01
1.262637e-01
2.053982e-01
2.028115e-01
1.989383e-01