VARIABLES = "X" "Y" "Z" "FREF"
ZONE T="instant 054"
Nodes=3151, Elements=6298
ZONETYPE=FETriangle
DATAPACKING=BLOCK
VARLOCATION = ([1-3]=NODAL, [4]=CELLCENTERED)
5.000000e-01
1.803867e-01
1.980979e-01
2.140522e-01
2.287980e-01
2.457203e-01
2.638043e-01
2.829697e-01
3.034202e-01
3.247508e-01
3.460794e-01
3.662211e-01
3.853227e-01
4.035938e-01
4.204838e-01
4.353254e-01
4.477885e-01
4.572367e-01
4.658535e-01
4.747849e-01
4.825308e-01
4.886856e-01
4.932304e-01
4.965425e-01
4.986714e-01
4.997531e-01
1.654000e-01
1.654000e-01
1.654000e-01
1.654000e-01
1.654000e-01
1.654000e-01
1.654000e-01
1.654000e-01
1.654000e-01
1.654000e-01
1.654000e-01
1.654000e-01
3.146505e-01
3.130047e-01
3.091337e-01
3.029301e-01
2.956162e-01
2.903085e-01
2.835766e-01
2.749828e-01
2.665439e-01
2.585161e-01
2.499020e-01
2.400862e-01
2.318919e-01
2.241052e-01
2.165336e-01
2.074592e-01
1.984516e-01
1.915256e-01
1.833930e-01
1.746051e-01
3.154000e-01
4.834540e-01
4.640850e-01
4.468406e-01
4.296320e-01
4.104624e-01
3.910701e-01
3.738434e-01
3.574914e-01
3.414932e-01
3.273967e-01
3.575718e-01
2.039026e-01
1.939429e-01
3.709933e-01
3.487809e-01
2.085984e-01
2.183179e-01
2.004426e-01
2.208435e-01
1.831727e-01
2.215165e-01
2.090509e-01
2.255634e-01
2.370627e-01
4.848076e-01
2.498235e-01
2.660508e-01
2.432300e-01
2.545672e-01
3.039639e-01
3.165381e-01
3.543155e-01
3.331277e-01
3.347354e-01
3.652716e-01
3.775760e-01
3.550776e-01
4.777590e-01
4.671858e-01
3.679122e-01
3.870777e-01
3.791039e-01
3.989407e-01
3.925066e-01
4.046825e-01
3.263816e-01
3.511526e-01
3.387178e-01
3.193623e-01
2.017092e-01
1.880781e-01
1.796590e-01
1.813897e-01
1.810560e-01
1.964544e-01
2.118345e-01
1.818614e-01
1.973100e-01
2.128164e-01
2.289783e-01
1.746832e-01
1.854283e-01
1.990779e-01
2.142351e-01
4.811341e-01
2.297699e-01
2.463263e-01
2.468469e-01
2.643510e-01
2.489872e-01
2.640519e-01
2.827518e-01
1.814318e-01
1.982104e-01
2.147076e-01
2.316949e-01
2.268502e-01
2.260650e-01
2.355666e-01
2.438278e-01
2.623073e-01
2.775698e-01
2.880715e-01
3.019038e-01
1.801654e-01
1.958422e-01
2.126290e-01
2.311613e-01
2.465644e-01
2.608495e-01
2.781031e-01
2.641477e-01
2.759347e-01
2.803886e-01
2.940193e-01
3.085356e-01
3.258707e-01
2.419220e-01
2.552631e-01
2.688423e-01
2.949137e-01
4.750805e-01
4.640721e-01
4.559059e-01
4.460680e-01
3.111020e-01
3.277355e-01
3.461514e-01
2.480945e-01
2.821971e-01
2.969985e-01
3.132994e-01
3.287777e-01
3.460310e-01
3.649766e-01
2.622667e-01
2.769652e-01
2.924731e-01
3.001014e-01
3.162585e-01
3.345315e-01
4.685146e-01
4.560471e-01
4.452452e-01
4.356217e-01
4.248803e-01
3.454995e-01
3.629005e-01
3.824851e-01
3.142055e-01
3.336190e-01
3.573469e-01
3.779179e-01
3.987636e-01
2.673965e-01
2.822384e-01
2.980369e-01
3.153165e-01
3.532707e-01
3.733350e-01
3.935763e-01
4.141714e-01
3.333741e-01
3.517154e-01
3.700843e-01
3.893311e-01
4.084819e-01
4.283355e-01
4.158326e-01
4.288459e-01
2.850691e-01
3.004109e-01
3.169215e-01
3.345565e-01
3.526672e-01
3.700863e-01
3.854527e-01
4.054709e-01
4.221699e-01
4.417423e-01
3.803618e-01
3.883002e-01
4.607238e-01
4.478511e-01
4.365259e-01
4.259903e-01
4.161913e-01
4.067094e-01
3.955767e-01
3.969008e-01
4.066674e-01
4.171200e-01
4.267322e-01
4.385525e-01
4.517627e-01
1.654000e-01
4.996516e-01
4.976318e-01
4.941693e-01
4.893770e-01
4.816971e-01
4.727733e-01
4.613987e-01
4.473946e-01
4.299222e-01
4.118241e-01
3.954102e-01
3.777407e-01
3.591039e-01
3.396349e-01
3.229169e-01
3.089470e-01
2.950658e-01
2.799341e-01
2.640729e-01
2.483642e-01
2.330381e-01
2.180553e-01
2.036406e-01
1.898043e-01
1.768741e-01
5.000000e-01
3.273192e-01
3.416355e-01
3.576623e-01
3.754616e-01
3.927751e-01
4.098096e-01
4.280627e-01
4.481802e-01
4.679450e-01
4.856856e-01
3.154000e-01
1.744454e-01
1.834177e-01
1.940428e-01
2.061857e-01
2.164160e-01
2.263189e-01
2.361647e-01
2.459725e-01
2.545688e-01
2.611770e-01
2.697299e-01
2.775464e-01
2.837782e-01
2.888730e-01
2.937260e-01
3.003247e-01
3.052452e-01
3.080589e-01
3.106079e-01
3.130907e-01
3.148700e-01
1.654000e-01
1.654000e-01
1.654000e-01
1.654000e-01
1.654000e-01
1.654000e-01
1.654000e-01
1.654000e-01
1.654000e-01
1.654000e-01
1.654000e-01
3.578908e-01
3.881479e-01
1.989843e-01
2.273921e-01
2.192212e-01
3.246719e-01
3.311985e-01
3.450948e-01
3.436273e-01
3.645608e-01
3.647345e-01
3.730951e-01
3.539015e-01
4.124641e-01
1.783427e-01
3.983939e-01
3.769312e-01
4.018856e-01
3.620944e-01
3.910827e-01
3.775991e-01
4.083795e-01
3.947447e-01
1.824782e-01
2.267678e-01
2.020391e-01
1.923913e-01
1.816075e-01
2.218086e-01
2.468667e-01
2.135316e-01
2.463771e-01
2.327695e-01
2.562153e-01
2.430462e-01
2.659138e-01
2.778055e-01
1.882821e-01
3.283215e-01
1.813390e-01
1.911995e-01
2.067689e-01
3.189124e-01
3.334183e-01
3.457142e-01
4.802666e-01
4.602096e-01
4.710189e-01
4.769878e-01
4.320128e-01
4.413298e-01
4.496729e-01
4.574522e-01
2.061378e-01
1.950161e-01
1.800858e-01
4.681216e-01
4.290151e-01
4.369195e-01
4.449584e-01
4.610875e-01
4.177079e-01
4.214205e-01
4.429435e-01
4.514053e-01
3.175702e-01
3.254307e-01
3.349608e-01
3.987303e-01
4.137305e-01
4.339471e-01
3.832303e-01
4.021101e-01
4.086055e-01
4.168920e-01
4.229082e-01
4.263626e-01
4.305377e-01
3.037144e-01
3.444821e-01
3.597597e-01
3.809166e-01
3.919568e-01
4.062962e-01
4.194372e-01
3.078286e-01
3.142070e-01
3.231553e-01
3.693943e-01
3.826457e-01
2.207937e-01
2.097846e-01
3.939749e-01
4.039205e-01
2.887800e-01
3.326799e-01
3.431533e-01
3.619687e-01
3.707106e-01
3.797477e-01
3.878228e-01
2.935814e-01
2.992599e-01
3.073217e-01
3.475707e-01
3.570733e-01
3.644184e-01
3.713010e-01
3.144443e-01
2.350663e-01
2.222792e-01
2.083237e-01
1.943351e-01
1.800184e-01
3.205546e-01
3.368446e-01
3.421827e-01
3.481601e-01
3.540572e-01
2.698575e-01
2.752763e-01
2.813423e-01
2.893008e-01
3.204105e-01
3.257513e-01
3.316255e-01
3.365465e-01
2.940887e-01
2.979078e-01
3.033658e-01
3.101862e-01
3.158343e-01
3.188869e-01
1.821208e-01
1.986861e-01
2.183282e-01
2.346349e-01
2.503475e-01
2.662372e-01
2.823152e-01
2.482123e-01
2.521274e-01
2.670964e-01
2.700964e-01
2.735088e-01
2.802146e-01
2.882692e-01
2.977615e-01
2.985729e-01
3.000077e-01
2.500294e-01
2.365998e-01
2.234491e-01
2.104427e-01
1.967447e-01
1.814571e-01
2.541863e-01
2.671666e-01
2.815521e-01
2.281730e-01
2.391541e-01
2.517545e-01
2.656003e-01
5.000000e-01
5.000000e-01
5.000000e-01
5.000000e-01
5.000000e-01
5.000000e-01
5.000000e-01
5.000000e-01
5.000000e-01
5.000000e-01
5.000000e-01
5.000000e-01
5.000000e-01
5.000000e-01
5.000000e-01
5.000000e-01
5.000000e-01
5.000000e-01
5.000000e-01
5.000000e-01
5.000000e-01
5.000000e-01
5.000000e-01
5.000000e-01
5.000000e-01
5.000000e-01
5.000000e-01
5.000000e-01
5.000000e-01
5.000000e-01
5.000000e-01
5.000000e-01
5.000000e-01
1.654000e-01
1.654000e-01
1.654000e-01
1.654000e-01
1.654000e-01
1.654000e-01
1.654000e-01
1.654000e-01
1.654000e-01
1.654000e-01
1.654000e-01
1.654000e-01
1.654000e-01
1.654000e-01
1.654000e-01
1.654000e-01
1.654000e-01
1.654000e-01
1.654000e-01
1.654000e-01
1.654000e-01
1.654000e-01
1.654000e-01
1.654000e-01
1.654000e-01
1.654000e-01
1.654000e-01
1.654000e-01
1.654000e-01
1.654000e-01
1.654000e-01
1.654000e-01
1.654000e-01
3.478232e-01
3.592254e-01
3.548283e-01
3.658991e-01
3.776582e-01
4.036021e-01
3.831350e-01
3.919166e-01
3.101071e-01
3.197585e-01
3.282495e-01
3.291111e-01
3.373565e-01
3.439320e-01
3.490478e-01
3.753937e-01
3.567376e-01
3.470882e-01
3.649557e-01
3.829846e-01
3.385266e-01
3.382593e-01
1.859772e-01
1.777854e-01
3.538088e-01
3.717190e-01
3.899386e-01
3.713643e-01
3.828954e-01
3.948193e-01
3.879384e-01
3.987717e-01
4.035245e-01
4.250297e-01
3.882713e-01
4.017511e-01
3.820244e-01
4.085881e-01
3.914842e-01
3.738329e-01
4.146735e-01
3.982065e-01
3.829970e-01
3.675511e-01
4.132409e-01
4.258293e-01
4.222343e-01
4.095675e-01
3.992725e-01
2.028410e-01
1.925088e-01
1.805797e-01
3.617177e-01
3.729570e-01
3.825071e-01
3.534599e-01
3.641975e-01
3.451247e-01
1.779653e-01
1.875502e-01
1.895440e-01
1.991739e-01
2.017539e-01
2.095813e-01
2.120940e-01
2.149221e-01
2.158396e-01
2.220246e-01
2.256230e-01
2.288780e-01
2.301789e-01
2.358525e-01
2.399656e-01
2.436079e-01
2.389990e-01
2.452839e-01
2.506457e-01
2.550232e-01
2.589746e-01
2.492141e-01
2.551300e-01
2.610386e-01
2.662571e-01
2.707267e-01
2.748716e-01
2.592155e-01
2.191342e-01
2.084831e-01
1.972565e-01
1.857897e-01
1.787242e-01
2.655432e-01
2.716325e-01
2.773687e-01
2.825057e-01
2.868990e-01
2.911081e-01
2.754936e-01
2.824193e-01
2.885484e-01
2.941890e-01
2.993133e-01
3.032941e-01
3.074483e-01
2.848145e-01
2.927525e-01
2.999684e-01
3.057715e-01
3.113854e-01
3.167813e-01
3.193802e-01
3.236374e-01
2.941385e-01
3.024289e-01
3.106680e-01
3.183459e-01
3.228227e-01
3.288926e-01
3.359529e-01
3.336472e-01
3.401995e-01
3.567417e-01
4.004174e-01
3.341512e-01
3.500336e-01
3.678490e-01
2.357483e-01
2.250959e-01
2.140896e-01
2.032500e-01
1.939130e-01
1.843267e-01
3.859985e-01
3.230670e-01
3.401401e-01
3.585513e-01
3.772125e-01
3.936601e-01
4.086992e-01
3.568541e-01
3.673191e-01
3.734864e-01
3.801129e-01
3.859260e-01
3.932543e-01
4.009199e-01
4.087079e-01
4.095860e-01
4.135363e-01
4.179500e-01
4.200605e-01
4.233087e-01
4.272401e-01
3.932212e-01
4.025715e-01
4.104953e-01
4.183641e-01
4.260610e-01
4.321216e-01
4.361344e-01
4.075513e-01
4.115841e-01
4.186791e-01
4.275147e-01
4.346726e-01
4.399338e-01
4.444046e-01
4.225503e-01
4.365751e-01
4.345823e-01
4.453487e-01
4.481392e-01
4.521999e-01
4.563619e-01
4.597007e-01
4.352707e-01
4.509833e-01
4.605480e-01
4.663568e-01
4.474650e-01
4.611563e-01
4.672994e-01
4.722743e-01
4.683992e-01
4.783805e-01
2.532299e-01
2.422942e-01
2.312010e-01
2.202832e-01
2.099753e-01
1.996223e-01
1.875829e-01
1.795650e-01
4.752152e-01
4.840387e-01
4.779018e-01
4.851034e-01
4.927636e-01
4.979662e-01
4.954006e-01
4.920548e-01
4.915766e-01
4.880570e-01
4.863253e-01
4.870948e-01
4.798127e-01
4.807447e-01
4.818942e-01
4.832709e-01
4.721410e-01
4.730118e-01
4.743232e-01
4.759214e-01
4.777202e-01
4.638180e-01
4.652999e-01
4.671442e-01
4.692472e-01
4.714962e-01
4.620110e-01
4.647151e-01
4.529497e-01
4.547727e-01
4.568857e-01
4.593409e-01
4.407086e-01
4.427525e-01
4.450863e-01
4.479125e-01
4.511317e-01
4.544040e-01
4.574334e-01
4.276346e-01
4.294088e-01
4.317139e-01
4.348165e-01
4.386877e-01
4.429236e-01
4.465408e-01
4.493909e-01
3.998916e-01
4.012444e-01
4.150208e-01
4.168488e-01
4.197840e-01
4.245013e-01
4.296725e-01
4.356868e-01
4.368726e-01
4.408771e-01
4.008708e-01
4.139892e-01
3.916216e-01
2.087475e-01
2.315693e-01
2.187576e-01
2.366903e-01
2.301261e-01
2.541460e-01
2.494431e-01
2.424228e-01
2.771542e-01
2.688741e-01
2.715871e-01
2.601365e-01
2.487490e-01
2.375734e-01
2.267447e-01
2.160357e-01
2.050593e-01
1.951605e-01
1.849975e-01
2.618576e-01
2.546949e-01
2.983763e-01
2.896997e-01
2.816601e-01
2.741284e-01
2.668422e-01
3.107269e-01
3.019706e-01
2.938992e-01
2.862541e-01
2.788741e-01
3.316223e-01
3.223665e-01
3.138512e-01
3.058962e-01
2.982798e-01
2.908263e-01
3.517870e-01
3.425176e-01
3.336936e-01
3.255321e-01
3.178114e-01
3.102628e-01
3.026939e-01
3.704329e-01
3.623233e-01
3.531296e-01
3.448697e-01
3.371860e-01
3.297775e-01
3.222014e-01
3.144019e-01
3.859357e-01
3.830456e-01
3.717792e-01
3.636585e-01
3.560119e-01
3.490807e-01
3.418512e-01
3.338986e-01
3.258226e-01
4.338257e-01
4.224048e-01
4.082431e-01
3.923257e-01
3.746429e-01
3.559023e-01
3.368489e-01
4.187395e-01
4.034957e-01
3.862727e-01
3.662350e-01
3.472919e-01
1.786930e-01
1.769883e-01
1.795444e-01
1.926957e-01
1.883968e-01
1.961856e-01
2.072436e-01
1.780001e-01
1.897730e-01
2.009873e-01
2.110014e-01
2.220524e-01
1.787104e-01
1.911577e-01
2.030686e-01
2.146285e-01
2.257636e-01
2.372217e-01
2.907657e-01
2.785779e-01
2.667671e-01
2.552994e-01
2.441222e-01
2.331192e-01
2.221600e-01
2.115118e-01
2.006837e-01
1.885303e-01
1.793879e-01
1.755802e-01
1.819144e-01
1.930001e-01
2.049491e-01
2.170180e-01
2.289712e-01
2.408928e-01
2.528494e-01
1.748491e-01
1.778188e-01
1.879092e-01
1.965390e-01
2.073557e-01
2.192474e-01
2.314915e-01
2.439198e-01
2.564586e-01
2.690334e-01
1.812893e-01
1.911510e-01
2.009865e-01
2.106560e-01
2.218112e-01
2.338913e-01
2.464633e-01
2.592939e-01
2.723913e-01
2.860301e-01
3.009679e-01
1.761999e-01
1.860138e-01
1.949220e-01
2.047795e-01
2.146095e-01
2.247107e-01
2.364368e-01
2.488905e-01
2.617821e-01
2.749625e-01
2.883219e-01
3.019944e-01
3.145066e-01
1.770061e-01
1.879922e-01
1.975800e-01
2.084759e-01
2.188306e-01
2.286876e-01
2.386955e-01
2.513994e-01
2.641268e-01
2.773959e-01
2.908372e-01
3.043203e-01
3.184501e-01
3.296269e-01
1.719436e-01
1.788647e-01
1.891640e-01
2.006069e-01
2.093574e-01
2.229585e-01
2.335433e-01
2.433471e-01
2.521146e-01
2.672169e-01
2.794271e-01
2.933159e-01
3.068821e-01
3.200560e-01
3.367284e-01
3.449394e-01
3.106086e-01
2.974669e-01
2.851457e-01
2.734350e-01
2.620308e-01
2.507869e-01
2.396223e-01
2.285584e-01
2.174124e-01
2.058840e-01
1.947576e-01
1.817139e-01
4.990392e-01
4.996646e-01
4.967498e-01
4.984551e-01
4.995761e-01
4.931722e-01
4.960124e-01
4.981133e-01
4.994931e-01
4.840108e-01
4.885229e-01
4.923175e-01
4.954321e-01
4.978336e-01
4.994183e-01
4.663787e-01
4.764426e-01
4.824991e-01
4.873463e-01
4.914513e-01
4.948733e-01
4.975498e-01
4.993366e-01
4.696871e-01
4.755796e-01
4.811256e-01
4.861323e-01
4.905245e-01
4.942468e-01
4.972012e-01
4.992217e-01
4.551421e-01
4.612497e-01
4.674053e-01
4.736438e-01
4.794628e-01
4.847514e-01
4.894383e-01
4.934471e-01
4.966762e-01
4.989916e-01
4.995779e-01
4.421890e-01
4.505402e-01
4.578659e-01
4.648363e-01
4.714410e-01
4.775621e-01
4.831329e-01
4.880853e-01
4.923232e-01
4.956912e-01
4.979586e-01
4.994329e-01
4.181283e-01
4.289659e-01
4.385104e-01
4.469472e-01
4.547535e-01
4.621100e-01
4.690035e-01
4.753844e-01
4.812006e-01
4.863890e-01
4.908666e-01
4.945321e-01
4.973731e-01
4.992861e-01
3.883160e-01
4.034230e-01
4.153600e-01
4.257596e-01
4.349566e-01
4.434983e-01
3.307979e-01
3.165455e-01
3.036059e-01
2.918351e-01
2.803664e-01
2.689812e-01
2.576203e-01
2.462708e-01
2.348617e-01
2.232985e-01
2.116505e-01
1.994484e-01
1.872410e-01
4.515621e-01
4.591601e-01
4.662701e-01
4.728591e-01
4.788794e-01
4.843068e-01
4.891289e-01
4.933059e-01
4.968038e-01
4.991097e-01
1.776204e-01
1.903174e-01
2.035002e-01
2.173732e-01
2.318944e-01
2.470959e-01
2.628658e-01
2.791093e-01
2.956775e-01
3.124513e-01
3.294193e-01
3.465219e-01
3.635940e-01
3.807694e-01
3.973501e-01
4.129883e-01
4.274549e-01
4.414285e-01
4.556321e-01
4.653139e-01
4.743161e-01
4.841472e-01
4.910719e-01
4.962916e-01
3.744658e-01
3.906641e-01
4.018003e-01
4.127770e-01
4.221736e-01
4.312136e-01
4.399087e-01
4.481507e-01
4.558945e-01
4.631668e-01
4.699041e-01
4.760380e-01
4.817038e-01
4.869475e-01
4.915407e-01
4.964156e-01
4.986099e-01
1.782781e-01
1.915914e-01
2.054064e-01
2.198662e-01
2.349477e-01
2.506668e-01
2.669248e-01
2.836314e-01
3.006667e-01
3.179330e-01
3.353249e-01
3.527024e-01
3.699181e-01
3.867614e-01
4.029508e-01
4.183156e-01
4.327716e-01
4.463178e-01
4.584004e-01
4.689799e-01
4.784022e-01
4.866616e-01
4.931783e-01
4.978794e-01
1.789779e-01
1.929443e-01
2.073912e-01
2.224628e-01
2.381477e-01
2.544407e-01
2.712407e-01
2.884493e-01
3.059410e-01
3.235893e-01
3.412485e-01
3.587555e-01
3.759287e-01
3.925711e-01
4.085005e-01
4.235691e-01
4.376426e-01
4.505526e-01
4.621461e-01
4.724313e-01
4.813732e-01
4.888586e-01
4.946682e-01
4.985454e-01
1.797125e-01
1.943374e-01
2.094707e-01
2.252297e-01
2.415828e-01
2.584938e-01
2.758518e-01
2.935440e-01
3.114327e-01
3.509491e-01
3.355946e-01
3.215803e-01
3.102702e-01
2.990010e-01
2.876189e-01
2.761424e-01
2.645962e-01
2.529796e-01
2.412521e-01
2.294108e-01
2.172928e-01
2.048927e-01
1.915255e-01
1.821025e-01
3.293725e-01
3.472035e-01
3.647538e-01
3.818417e-01
3.982876e-01
4.139289e-01
4.286194e-01
4.422194e-01
4.546069e-01
4.657041e-01
4.754559e-01
4.837790e-01
4.905646e-01
4.956625e-01
4.988826e-01
1.803701e-01
1.957885e-01
2.117489e-01
2.282951e-01
2.453683e-01
2.629089e-01
2.808018e-01
2.989279e-01
3.171442e-01
3.352998e-01
3.532351e-01
3.707768e-01
3.877390e-01
4.039424e-01
4.192364e-01
4.334895e-01
4.465834e-01
4.584266e-01
4.689531e-01
4.780921e-01
4.857633e-01
4.918834e-01
4.963569e-01
4.990861e-01
1.811936e-01
1.975826e-01
2.144770e-01
2.318577e-01
2.496499e-01
2.677812e-01
2.861452e-01
3.046284e-01
3.230914e-01
3.413960e-01
3.593922e-01
3.768889e-01
3.936784e-01
4.095708e-01
4.244470e-01
4.382017e-01
4.507436e-01
4.619978e-01
4.719085e-01
4.804024e-01
4.874266e-01
4.929378e-01
4.968826e-01
4.992312e-01
1.824967e-01
2.000120e-01
2.179166e-01
2.361213e-01
2.545685e-01
2.732091e-01
2.919239e-01
3.106448e-01
3.292510e-01
3.476814e-01
3.657403e-01
3.831616e-01
3.997328e-01
4.152129e-01
4.295766e-01
4.427464e-01
4.547129e-01
4.653572e-01
4.746216e-01
4.824384e-01
4.888450e-01
4.938285e-01
4.973268e-01
4.993549e-01
1.842733e-01
2.033488e-01
2.223852e-01
2.412088e-01
2.602815e-01
2.793594e-01
2.981127e-01
3.168198e-01
3.354719e-01
3.542945e-01
3.723789e-01
3.896506e-01
4.060509e-01
4.209334e-01
4.345801e-01
4.469966e-01
4.585979e-01
4.686243e-01
4.771282e-01
4.841714e-01
4.900620e-01
4.946552e-01
3.706487e-01
3.551719e-01
3.377919e-01
3.285433e-01
3.178267e-01
3.065992e-01
2.951066e-01
2.834460e-01
2.716743e-01
2.598136e-01
2.478419e-01
2.357185e-01
2.234374e-01
2.111248e-01
2.000312e-01
1.877668e-01
4.977725e-01
4.994842e-01
1.882415e-01
2.094513e-01
2.274180e-01
2.470668e-01
2.672746e-01
2.868496e-01
3.044257e-01
3.207158e-01
3.424075e-01
3.616921e-01
3.792852e-01
3.961640e-01
4.134194e-01
4.271426e-01
4.385355e-01
4.507006e-01
4.630744e-01
4.722112e-01
4.789613e-01
4.854819e-01
4.910839e-01
4.956126e-01
4.983731e-01
4.995838e-01
4.995627e-01
4.993479e-01
4.980750e-01
4.995906e-01
4.988642e-01
4.973527e-01
4.953965e-01
4.993499e-01
4.980689e-01
4.963665e-01
4.940896e-01
4.914555e-01
4.988518e-01
4.972792e-01
4.951653e-01
4.925721e-01
4.895256e-01
4.861616e-01
4.993987e-01
4.976894e-01
4.961943e-01
4.938362e-01
4.908811e-01
4.874454e-01
4.836131e-01
4.794434e-01
4.714058e-01
4.991752e-01
4.974105e-01
4.950139e-01
4.923558e-01
4.890670e-01
4.852355e-01
4.809646e-01
4.763470e-01
4.623382e-01
4.995729e-01
4.987321e-01
4.968125e-01
4.941161e-01
4.908758e-01
4.871818e-01
4.829434e-01
4.782205e-01
4.731247e-01
4.677894e-01
4.523068e-01
4.993329e-01
4.979679e-01
4.959615e-01
4.930674e-01
4.894659e-01
4.853046e-01
4.806283e-01
4.754426e-01
4.698170e-01
4.639216e-01
4.579981e-01
4.988889e-01
4.972699e-01
4.949388e-01
4.918508e-01
4.879799e-01
4.834438e-01
4.783348e-01
4.726938e-01
4.665561e-01
4.599734e-01
4.533083e-01
4.469368e-01
4.407149e-01
4.269386e-01
4.994907e-01
4.979494e-01
4.964064e-01
4.938910e-01
4.905413e-01
4.864072e-01
4.815502e-01
4.760630e-01
4.700013e-01
4.634015e-01
4.563078e-01
4.484902e-01
4.412003e-01
4.347172e-01
3.757161e-01
3.894462e-01
4.993159e-01
4.979133e-01
4.956453e-01
4.928620e-01
4.892422e-01
4.848073e-01
4.796252e-01
4.737855e-01
4.673627e-01
4.603473e-01
4.528004e-01
4.449320e-01
4.342668e-01
4.278764e-01
4.223033e-01
4.083051e-01
1.654000e-01
1.654000e-01
1.654000e-01
1.654000e-01
1.654000e-01
1.654000e-01
1.654000e-01
1.654000e-01
1.654000e-01
1.654000e-01
1.654000e-01
1.654000e-01
1.654000e-01
1.654000e-01
1.654000e-01
1.654000e-01
1.654000e-01
1.654000e-01
1.654000e-01
1.654000e-01
1.654000e-01
1.654000e-01
1.654000e-01
1.654000e-01
1.654000e-01
1.654000e-01
1.654000e-01
1.654000e-01
1.654000e-01
1.654000e-01
1.654000e-01
1.654000e-01
1.654000e-01
1.654000e-01
1.654000e-01
1.654000e-01
1.654000e-01
1.654000e-01
1.654000e-01
1.654000e-01
1.654000e-01
1.654000e-01
1.654000e-01
1.654000e-01
1.654000e-01
1.654000e-01
1.654000e-01
1.654000e-01
1.654000e-01
1.654000e-01
1.654000e-01
1.654000e-01
1.654000e-01
1.654000e-01
1.654000e-01
1.654000e-01
1.654000e-01
1.654000e-01
1.654000e-01
1.654000e-01
1.654000e-01
1.654000e-01
1.654000e-01
1.654000e-01
1.654000e-01
1.654000e-01
1.654000e-01
1.654000e-01
1.654000e-01
1.654000e-01
1.654000e-01
1.654000e-01
1.654000e-01
1.654000e-01
1.654000e-01
1.654000e-01
1.654000e-01
1.654000e-01
1.654000e-01
1.654000e-01
1.654000e-01
1.654000e-01
1.654000e-01
1.654000e-01
1.654000e-01
1.654000e-01
1.654000e-01
1.654000e-01
1.654000e-01
1.654000e-01
1.654000e-01
1.654000e-01
1.654000e-01
1.654000e-01
1.654000e-01
1.654000e-01
1.654000e-01
1.654000e-01
1.654000e-01
1.654000e-01
1.654000e-01
1.654000e-01
1.654000e-01
1.654000e-01
1.654000e-01
1.654000e-01
1.654000e-01
1.654000e-01
1.654000e-01
1.654000e-01
1.654000e-01
1.654000e-01
1.654000e-01
1.654000e-01
1.654000e-01
1.654000e-01
1.654000e-01
1.654000e-01
1.654000e-01
1.654000e-01
1.654000e-01
1.654000e-01
1.654000e-01
1.654000e-01
1.654000e-01
1.654000e-01
1.654000e-01
1.654000e-01
1.654000e-01
1.654000e-01
1.654000e-01
1.654000e-01
1.654000e-01
1.654000e-01
1.654000e-01
1.654000e-01
1.654000e-01
1.654000e-01
1.654000e-01
1.654000e-01
1.654000e-01
1.654000e-01
1.654000e-01
1.654000e-01
1.654000e-01
1.654000e-01
1.654000e-01
1.654000e-01
1.654000e-01
1.654000e-01
1.654000e-01
1.654000e-01
1.654000e-01
1.654000e-01
1.654000e-01
1.654000e-01
1.654000e-01
1.654000e-01
1.654000e-01
1.654000e-01
1.654000e-01
1.654000e-01
1.654000e-01
1.654000e-01
1.654000e-01
1.654000e-01
1.654000e-01
1.654000e-01
1.654000e-01
1.654000e-01
1.654000e-01
1.654000e-01
1.654000e-01
1.654000e-01
1.654000e-01
1.654000e-01
1.654000e-01
1.654000e-01
1.654000e-01
1.654000e-01
1.654000e-01
1.654000e-01
1.654000e-01
1.654000e-01
1.654000e-01
1.654000e-01
1.654000e-01
1.654000e-01
1.654000e-01
1.654000e-01
1.654000e-01
1.654000e-01
1.654000e-01
1.654000e-01
1.654000e-01
1.654000e-01
1.654000e-01
1.654000e-01
1.654000e-01
1.654000e-01
1.654000e-01
1.654000e-01
1.654000e-01
1.654000e-01
1.654000e-01
1.654000e-01
1.654000e-01
1.654000e-01
1.654000e-01
1.654000e-01
1.654000e-01
1.654000e-01
1.654000e-01
1.654000e-01
1.654000e-01
1.654000e-01
1.654000e-01
1.654000e-01
1.654000e-01
1.654000e-01
1.654000e-01
1.654000e-01
1.654000e-01
1.654000e-01
1.654000e-01
1.654000e-01
1.654000e-01
1.654000e-01
1.654000e-01
1.654000e-01
1.654000e-01
1.654000e-01
1.654000e-01
1.654000e-01
1.654000e-01
1.654000e-01
1.654000e-01
1.654000e-01
1.654000e-01
1.654000e-01
1.654000e-01
1.654000e-01
1.654000e-01
1.654000e-01
1.654000e-01
1.654000e-01
1.654000e-01
1.654000e-01
1.654000e-01
1.654000e-01
1.654000e-01
1.654000e-01
1.654000e-01
1.654000e-01
1.654000e-01
1.654000e-01
1.654000e-01
1.654000e-01
1.654000e-01
1.654000e-01
1.654000e-01
1.654000e-01
1.654000e-01
1.654000e-01
1.654000e-01
1.654000e-01
1.654000e-01
1.654000e-01
1.654000e-01
1.654000e-01
1.654000e-01
1.654000e-01
1.654000e-01
1.654000e-01
1.654000e-01
1.654000e-01
1.654000e-01
1.654000e-01
1.654000e-01
1.654000e-01
1.654000e-01
1.654000e-01
1.654000e-01
1.654000e-01
1.654000e-01
1.654000e-01
1.654000e-01
1.654000e-01
1.654000e-01
1.654000e-01
1.654000e-01
1.654000e-01
1.654000e-01
1.654000e-01
1.654000e-01
1.654000e-01
1.654000e-01
1.654000e-01
1.654000e-01
1.654000e-01
1.654000e-01
1.654000e-01
1.654000e-01
1.654000e-01
1.654000e-01
1.654000e-01
1.654000e-01
1.654000e-01
1.654000e-01
1.654000e-01
1.654000e-01
1.654000e-01
1.654000e-01
1.654000e-01
1.654000e-01
1.654000e-01
1.654000e-01
1.654000e-01
1.654000e-01
1.654000e-01
1.654000e-01
1.654000e-01
1.654000e-01
1.654000e-01
1.654000e-01
1.654000e-01
1.654000e-01
1.654000e-01
1.654000e-01
1.654000e-01
1.654000e-01
1.654000e-01
1.654000e-01
1.654000e-01
1.654000e-01
1.654000e-01
1.654000e-01
1.654000e-01
1.654000e-01
1.654000e-01
1.654000e-01
1.654000e-01
1.654000e-01
1.654000e-01
1.654000e-01
1.654000e-01
1.654000e-01
1.654000e-01
1.654000e-01
1.654000e-01
1.654000e-01
1.654000e-01
1.654000e-01
1.654000e-01
1.654000e-01
1.654000e-01
1.654000e-01
1.654000e-01
1.654000e-01
1.654000e-01
1.654000e-01
1.654000e-01
1.654000e-01
1.654000e-01
1.654000e-01
1.654000e-01
1.654000e-01
1.654000e-01
1.654000e-01
1.654000e-01
3.154000e-01
3.154000e-01
3.154000e-01
3.154000e-01
3.154000e-01
3.154000e-01
3.154000e-01
3.154000e-01
3.154000e-01
3.154000e-01
3.154000e-01
3.154000e-01
3.154000e-01
3.154000e-01
3.154000e-01
3.154000e-01
3.154000e-01
3.154000e-01
3.154000e-01
3.154000e-01
3.154000e-01
3.154000e-01
3.154000e-01
3.154000e-01
3.154000e-01
3.154000e-01
3.154000e-01
3.154000e-01
3.154000e-01
3.154000e-01
3.154000e-01
3.154000e-01
3.154000e-01
2.688121e-01
2.621917e-01
2.794467e-01
2.668289e-01
2.718393e-01
2.587540e-01
2.578265e-01
2.524244e-01
2.481023e-01
2.672747e-01
2.602757e-01
2.543250e-01
2.646982e-01
2.526009e-01
2.612771e-01
1.849245e-01
3.136277e-01
3.108000e-01
3.045096e-01
3.073427e-01
3.052714e-01
2.997712e-01
3.055377e-01
3.019595e-01
2.982771e-01
2.987585e-01
2.943581e-01
2.897648e-01
2.944815e-01
2.898901e-01
2.853328e-01
2.800976e-01
3.111027e-01
2.895798e-01
2.846142e-01
2.795468e-01
2.764319e-01
2.695221e-01
2.649312e-01
2.701215e-01
2.583904e-01
2.850339e-01
2.751868e-01
3.141107e-01
2.637787e-01
2.502179e-01
2.576951e-01
2.518827e-01
2.458910e-01
2.410934e-01
2.385682e-01
2.436190e-01
2.377070e-01
2.329437e-01
2.292672e-01
2.348272e-01
2.277249e-01
2.237787e-01
2.198929e-01
2.168591e-01
2.137571e-01
2.102608e-01
2.032350e-01
2.002528e-01
1.888758e-01
2.275596e-01
2.123553e-01
1.999850e-01
1.899352e-01
1.783886e-01
3.043200e-01
2.996172e-01
3.146663e-01
3.121153e-01
3.135390e-01
3.081293e-01
3.100712e-01
3.054768e-01
3.001847e-01
3.068463e-01
3.104348e-01
3.136238e-01
2.058195e-01
1.941123e-01
1.795014e-01
2.050282e-01
1.901089e-01
1.752479e-01
3.039303e-01
2.992224e-01
3.145414e-01
3.118524e-01
3.133359e-01
3.078213e-01
3.097533e-01
3.050620e-01
2.997027e-01
2.050285e-01
1.936663e-01
1.797363e-01
2.056782e-01
1.905191e-01
1.753636e-01
3.144502e-01
3.116080e-01
3.130621e-01
3.074656e-01
3.093079e-01
3.046533e-01
2.995911e-01
2.063178e-01
1.943768e-01
1.796649e-01
3.142094e-01
3.105705e-01
3.069833e-01
3.042927e-01
3.010933e-01
2.996869e-01
2.916588e-01
2.055957e-01
1.916385e-01
1.762227e-01
2.305387e-01
2.173186e-01
2.034097e-01
1.873949e-01
1.751715e-01
3.046132e-01
3.000646e-01
3.145777e-01
3.119248e-01
3.133650e-01
3.078275e-01
3.098283e-01
3.050124e-01
2.996756e-01
2.079205e-01
1.958402e-01
1.808366e-01
2.055048e-01
1.910145e-01
2.920734e-01
2.996617e-01
3.048193e-01
3.088822e-01
1.757242e-01
3.144816e-01
3.118750e-01
3.081776e-01
2.076052e-01
1.956118e-01
1.798520e-01
3.020555e-01
2.969209e-01
3.141847e-01
3.110657e-01
3.127856e-01
3.066786e-01
3.085271e-01
3.009580e-01
3.028936e-01
2.938605e-01
2.968040e-01
2.261279e-01
2.137875e-01
2.013257e-01
1.895345e-01
1.770710e-01
2.016554e-01
1.878008e-01
1.743945e-01
3.141496e-01
3.107707e-01
3.122839e-01
3.060530e-01
3.081696e-01
3.033084e-01
2.979361e-01
2.804688e-01
2.033646e-01
1.927267e-01
1.786223e-01
3.147274e-01
3.113000e-01
3.067000e-01
3.034315e-01
3.000801e-01
2.985342e-01
2.899164e-01
2.044936e-01
1.902501e-01
1.755964e-01
2.285229e-01
2.156652e-01
2.022118e-01
1.866389e-01
1.747810e-01
3.030856e-01
2.981855e-01
3.143268e-01
3.113651e-01
3.130356e-01
3.070781e-01
3.090816e-01
3.038133e-01
2.981128e-01
2.063584e-01
1.946216e-01
1.801493e-01
2.033364e-01
1.895903e-01
1.750950e-01
3.034141e-01
2.986212e-01
3.143382e-01
2.712814e-01
3.113025e-01
3.130227e-01
3.069068e-01
3.091773e-01
3.042716e-01
2.987293e-01
2.045307e-01
1.928620e-01
1.788023e-01
2.022912e-01
1.887950e-01
1.747392e-01
3.142869e-01
3.111453e-01
3.126233e-01
3.067881e-01
3.082970e-01
3.026402e-01
2.969496e-01
2.032713e-01
1.924331e-01
1.783376e-01
3.140615e-01
3.116484e-01
3.084567e-01
3.017327e-01
3.025584e-01
2.966140e-01
2.926437e-01
2.029831e-01
1.889904e-01
1.748815e-01
2.319327e-01
2.192023e-01
2.022400e-01
1.894133e-01
1.776925e-01
3.141899e-01
3.106100e-01
3.115171e-01
2.897321e-01
2.970965e-01
3.027142e-01
3.069570e-01
3.096859e-01
3.130697e-01
3.055965e-01
3.070266e-01
3.014782e-01
2.957382e-01
2.028720e-01
1.918841e-01
1.786025e-01
3.142223e-01
3.095068e-01
3.021438e-01
2.968705e-01
2.901636e-01
2.032217e-01
1.892578e-01
1.749024e-01
1.776546e-01
3.072615e-01
3.045918e-01
2.999975e-01
2.995570e-01
2.920449e-01
2.904605e-01
2.927693e-01
2.844100e-01
2.752327e-01
2.787784e-01
2.829125e-01
2.853057e-01
2.665454e-01
2.716345e-01
2.761176e-01
2.748293e-01
2.467814e-01
2.371411e-01
2.298405e-01
2.224136e-01
2.140676e-01
2.042807e-01
1.942537e-01
1.873597e-01
1.783249e-01
1.933561e-01
1.983531e-01
2.073648e-01
2.082556e-01
2.230220e-01
2.195057e-01
2.166727e-01
2.328647e-01
2.288457e-01
2.255055e-01
2.335114e-01
2.460000e-01
2.411804e-01
2.370355e-01
2.580262e-01
2.535242e-01
2.484467e-01
2.444860e-01
2.412799e-01
2.679000e-01
2.494019e-01
2.576498e-01
2.614450e-01
3.118129e-01
1.771423e-01
3.139155e-01
3.136498e-01
3.120701e-01
3.094433e-01
3.146965e-01
3.038392e-01
3.012350e-01
2.978460e-01
2.723947e-01
2.790699e-01
2.874427e-01
2.948434e-01
3.008507e-01
3.055136e-01
3.091740e-01
3.125322e-01
3.147399e-01
3.132048e-01
3.105752e-01
3.066346e-01
2.852263e-01
3.144582e-01
3.124340e-01
3.095593e-01
3.053672e-01
3.005136e-01
2.958998e-01
2.911879e-01
3.149676e-01
3.138875e-01
3.110156e-01
3.088896e-01
3.036091e-01
2.983270e-01
2.935507e-01
2.896736e-01
2.819800e-01
2.750596e-01
1.822635e-01
1.744297e-01
2.058856e-01
1.978888e-01
1.874583e-01
1.783165e-01
2.081733e-01
1.952698e-01
2.409141e-01
2.351981e-01
2.258050e-01
2.131738e-01
2.025175e-01
1.926489e-01
1.831549e-01
1.755467e-01
2.258967e-01
2.161873e-01
3.022508e-01
2.951356e-01
2.874123e-01
2.777981e-01
2.666947e-01
2.542345e-01
2.411274e-01
3.146028e-01
3.127201e-01
3.084743e-01
3.021122e-01
2.941734e-01
2.840758e-01
2.736064e-01
2.622206e-01
2.504900e-01
2.404564e-01
2.289176e-01
2.186800e-01
2.071744e-01
1.928454e-01
1.803439e-01
2.537045e-01
2.462931e-01
2.372874e-01
2.267328e-01
2.163791e-01
2.065435e-01
1.969793e-01
1.878879e-01
1.786679e-01
1.750230e-01
2.897524e-01
2.819107e-01
2.715900e-01
2.594426e-01
1.954586e-01
1.900795e-01
1.789342e-01
2.440180e-01
2.306767e-01
2.171308e-01
2.031001e-01
1.894206e-01
1.780243e-01
3.018727e-01
2.946974e-01
2.866654e-01
2.764896e-01
2.652935e-01
2.533049e-01
2.407370e-01
2.274417e-01
2.151987e-01
2.021928e-01
3.143764e-01
3.124323e-01
3.082075e-01
3.025144e-01
2.942659e-01
2.822201e-01
2.711573e-01
2.593637e-01
2.472259e-01
2.359617e-01
3.143836e-01
3.113188e-01
3.070704e-01
3.025387e-01
2.961307e-01