VARIABLES = "X" "Y" "Z" "FREF"
ZONE T="instant 035"
Nodes=3151, Elements=6298
ZONETYPE=FETriangle
DATAPACKING=BLOCK
VARLOCATION = ([1-3]=NODAL, [4]=CELLCENTERED)
5.000000e-01
1.308956e-01
1.487277e-01
1.657987e-01
1.823230e-01
2.015969e-01
2.226136e-01
2.451301e-01
2.691516e-01
2.941888e-01
3.195057e-01
3.438389e-01
3.669631e-01
3.891303e-01
4.094225e-01
4.269400e-01
4.414013e-01
4.523500e-01
4.621734e-01
4.721051e-01
4.806662e-01
4.874866e-01
4.925576e-01
4.962326e-01
4.985577e-01
4.997269e-01
1.160000e-01
1.160000e-01
1.160000e-01
1.160000e-01
1.160000e-01
1.160000e-01
1.160000e-01
1.160000e-01
1.160000e-01
1.160000e-01
1.160000e-01
1.160000e-01
2.653592e-01
2.638121e-01
2.604521e-01
2.551930e-01
2.490154e-01
2.440436e-01
2.376039e-01
2.295447e-01
2.210994e-01
2.130906e-01
2.042754e-01
1.945032e-01
1.858030e-01
1.777054e-01
1.695100e-01
1.597212e-01
1.501949e-01
1.427453e-01
1.342828e-01
1.252627e-01
2.660000e-01
4.794296e-01
4.533314e-01
4.310735e-01
4.086908e-01
3.823379e-01
3.566744e-01
3.350150e-01
3.149918e-01
2.958374e-01
2.793220e-01
3.199187e-01
1.552468e-01
1.447507e-01
3.331507e-01
3.113868e-01
1.594985e-01
1.697596e-01
1.514103e-01
1.730403e-01
1.338680e-01
1.742937e-01
1.606451e-01
1.785211e-01
1.913933e-01
4.813447e-01
2.055982e-01
2.243537e-01
1.982616e-01
2.112532e-01
2.598631e-01
2.753908e-01
3.121375e-01
2.915642e-01
2.959833e-01
3.249110e-01
3.440029e-01
3.202038e-01
4.728017e-01
4.591706e-01
3.341351e-01
3.577140e-01
3.506050e-01
3.736786e-01
3.709404e-01
3.832058e-01
2.785672e-01
3.075063e-01
2.932191e-01
2.730813e-01
1.528756e-01
1.385193e-01
1.309395e-01
1.320822e-01
1.318391e-01
1.479693e-01
1.641247e-01
1.324905e-01
1.486920e-01
1.652071e-01
1.830554e-01
1.252737e-01
1.361657e-01
1.503788e-01
1.665667e-01
4.772953e-01
1.838047e-01
2.026375e-01
2.029261e-01
2.233736e-01
2.050756e-01
2.225362e-01
2.447395e-01
1.325200e-01
1.497239e-01
1.671048e-01
1.855888e-01
1.800695e-01
1.783950e-01
1.887773e-01
1.984286e-01
2.201463e-01
2.376337e-01
2.497223e-01
2.666744e-01
1.304240e-01
1.467907e-01
1.645879e-01
1.847836e-01
2.023711e-01
2.187574e-01
2.388696e-01
2.215496e-01
2.356666e-01
2.409906e-01
2.567748e-01
2.738141e-01
2.946821e-01
1.962164e-01
2.107830e-01
2.263334e-01
2.581682e-01
4.700381e-01
4.559736e-01
4.443393e-01
4.306296e-01
2.771198e-01
2.968543e-01
3.191991e-01
2.028124e-01
2.421036e-01
2.597497e-01
2.796552e-01
2.981474e-01
3.188328e-01
3.419470e-01
2.180917e-01
2.345825e-01
2.530963e-01
2.627261e-01
2.820383e-01
3.047079e-01
4.623430e-01
4.460079e-01
4.315507e-01
4.176690e-01
4.019177e-01
3.182178e-01
3.391310e-01
3.630880e-01
2.788413e-01
3.020860e-01
3.322784e-01
3.571250e-01
3.825967e-01
2.227689e-01
2.390782e-01
2.570748e-01
2.776098e-01
3.259160e-01
3.505991e-01
3.754374e-01
4.008066e-01
2.999065e-01
3.227072e-01
3.454439e-01
3.693095e-01
3.930330e-01
4.175498e-01
3.989967e-01
4.165873e-01
2.409237e-01
2.580874e-01
2.773348e-01
2.988534e-01
3.219591e-01
3.444564e-01
3.637113e-01
3.884994e-01
4.095301e-01
4.334804e-01
3.440253e-01
3.549437e-01
4.536745e-01
4.365431e-01
4.211030e-01
4.066258e-01
3.923389e-01
3.782056e-01
3.633467e-01
3.679460e-01
3.821058e-01
3.964226e-01
4.103042e-01
4.265313e-01
4.440093e-01
1.160000e-01
4.996185e-01
4.976233e-01
4.941249e-01
4.891026e-01
4.811441e-01
4.717545e-01
4.598660e-01
4.453435e-01
4.268246e-01
4.069549e-01
3.885973e-01
3.683703e-01
3.459834e-01
3.226878e-01
3.026963e-01
2.858019e-01
2.687435e-01
2.497478e-01
2.297755e-01
2.101786e-01
1.913938e-01
1.735396e-01
1.568999e-01
1.416194e-01
1.278732e-01
5.000000e-01
2.793956e-01
2.962953e-01
3.162965e-01
3.391960e-01
3.615833e-01
3.837351e-01
4.067717e-01
4.326648e-01
4.595493e-01
4.825750e-01
2.660000e-01
1.247195e-01
1.335490e-01
1.437747e-01
1.553265e-01
1.655954e-01
1.754537e-01
1.855277e-01
1.954851e-01
2.043670e-01
2.114402e-01
2.201050e-01
2.281771e-01
2.346308e-01
2.399691e-01
2.450533e-01
2.514696e-01
2.563421e-01
2.592211e-01
2.616508e-01
2.639593e-01
2.655193e-01
1.160000e-01
1.160000e-01
1.160000e-01
1.160000e-01
1.160000e-01
1.160000e-01
1.160000e-01
1.160000e-01
1.160000e-01
1.160000e-01
1.160000e-01
3.171235e-01
3.556222e-01
1.528087e-01
1.820658e-01
1.752723e-01
2.782674e-01
2.866870e-01
3.011543e-01
3.018940e-01
3.258057e-01
3.264178e-01
3.359108e-01
3.167790e-01
3.928689e-01
1.297715e-01
3.708839e-01
3.462769e-01
3.778803e-01
3.284633e-01
3.651411e-01
3.485889e-01
3.868342e-01
3.704387e-01
1.345089e-01
1.767224e-01
1.554740e-01
1.449817e-01
1.332962e-01
1.740512e-01
2.024781e-01
1.693541e-01
2.047859e-01
1.915603e-01
2.185151e-01
2.043938e-01
2.312238e-01
2.468594e-01
1.380929e-01
2.808987e-01
1.329653e-01
1.422713e-01
1.569165e-01
2.709415e-01
2.874947e-01
3.025656e-01
4.746918e-01
4.483753e-01
4.626654e-01
4.728622e-01
4.119211e-01
4.240077e-01
4.356535e-01
4.475819e-01
1.604915e-01
1.483168e-01
1.317965e-01
4.626912e-01
4.093919e-01
4.207083e-01
4.329613e-01
4.546425e-01
3.942102e-01
3.991359e-01
4.315128e-01
4.433126e-01
2.713771e-01
2.811615e-01
2.935419e-01
3.765195e-01
3.953134e-01
4.229219e-01
3.493232e-01
3.743517e-01
3.831611e-01
3.944743e-01
4.039813e-01
4.101621e-01
4.160374e-01
2.558596e-01
3.073919e-01
3.278375e-01
3.549509e-01
3.698971e-01
3.895846e-01
4.095716e-01
2.609990e-01
2.699548e-01
2.819003e-01
3.433444e-01
3.613901e-01
1.775344e-01
1.650324e-01
3.779847e-01
3.936761e-01
2.402957e-01
2.964693e-01
3.130078e-01
3.373405e-01
3.497499e-01
3.634643e-01
3.763730e-01
2.465094e-01
2.552067e-01
2.667049e-01
3.221630e-01
3.356721e-01
3.470540e-01
3.580129e-01
2.790148e-01
1.947699e-01
1.798877e-01
1.637562e-01
1.481439e-01
1.324716e-01
2.904525e-01
3.115836e-01
3.196573e-01
3.291396e-01
3.383288e-01
2.205931e-01
2.280589e-01
2.378509e-01
2.490983e-01
2.930797e-01
3.016143e-01
3.105173e-01
3.178798e-01
2.581081e-01
2.657519e-01
2.744842e-01
2.843639e-01
2.922922e-01
2.971603e-01
1.342190e-01
1.527113e-01
1.754316e-01
1.948274e-01
2.140477e-01
2.334070e-01
2.528700e-01
1.985349e-01
2.053282e-01
2.238806e-01
2.292532e-01
2.365576e-01
2.467527e-01
2.580237e-01
2.703080e-01
2.723121e-01
2.749785e-01
2.131325e-01
1.971530e-01
1.816913e-01
1.665748e-01
1.513542e-01
1.338235e-01
2.186890e-01
2.343540e-01
2.521382e-01
1.873341e-01
2.005217e-01
2.155941e-01
2.323672e-01
5.000000e-01
5.000000e-01
5.000000e-01
5.000000e-01
5.000000e-01
5.000000e-01
5.000000e-01
5.000000e-01
5.000000e-01
5.000000e-01
5.000000e-01
5.000000e-01
5.000000e-01
5.000000e-01
5.000000e-01
5.000000e-01
5.000000e-01
5.000000e-01
5.000000e-01
5.000000e-01
5.000000e-01
5.000000e-01
5.000000e-01
5.000000e-01
5.000000e-01
5.000000e-01
5.000000e-01
5.000000e-01
5.000000e-01
5.000000e-01
5.000000e-01
5.000000e-01
5.000000e-01
1.160000e-01
1.160000e-01
1.160000e-01
1.160000e-01
1.160000e-01
1.160000e-01
1.160000e-01
1.160000e-01
1.160000e-01
1.160000e-01
1.160000e-01
1.160000e-01
1.160000e-01
1.160000e-01
1.160000e-01
1.160000e-01
1.160000e-01
1.160000e-01
1.160000e-01
1.160000e-01
1.160000e-01
1.160000e-01
1.160000e-01
1.160000e-01
1.160000e-01
1.160000e-01
1.160000e-01
1.160000e-01
1.160000e-01
1.160000e-01
1.160000e-01
1.160000e-01
1.160000e-01
3.348181e-01
3.486195e-01
3.429696e-01
3.562213e-01
3.700048e-01
3.918646e-01
3.677185e-01
3.779465e-01
2.888432e-01
3.008666e-01
3.113436e-01
3.122299e-01
3.222170e-01
3.299603e-01
3.368487e-01
3.676714e-01
3.460676e-01
3.343509e-01
3.553701e-01
3.761836e-01
3.238733e-01
3.238673e-01
1.364876e-01
1.282009e-01
3.421826e-01
3.631373e-01
3.839988e-01
3.624761e-01
3.760049e-01
3.896499e-01
3.817346e-01
3.941398e-01
3.993441e-01
4.228791e-01
3.755046e-01
3.906426e-01
3.676362e-01
3.981842e-01
3.782798e-01
3.576984e-01
4.049839e-01
3.856799e-01
3.680338e-01
3.498044e-01
4.026770e-01
4.172860e-01
4.136371e-01
3.985901e-01
3.865733e-01
1.540100e-01
1.431957e-01
1.310463e-01
3.420349e-01
3.553519e-01
3.666581e-01
3.318865e-01
3.445867e-01
3.215258e-01
1.291787e-01
1.394211e-01
1.419993e-01
1.526248e-01
1.560532e-01
1.649227e-01
1.680912e-01
1.718384e-01
1.724838e-01
1.799149e-01
1.846435e-01
1.889703e-01
1.900078e-01
1.970580e-01
2.024893e-01
2.073350e-01
2.010866e-01
2.088495e-01
2.156313e-01
2.214014e-01
2.266221e-01
2.137943e-01
2.212224e-01
2.286136e-01
2.352742e-01
2.411562e-01
2.465771e-01
2.260812e-01
1.716791e-01
1.600236e-01
1.481522e-01
1.363265e-01
1.292621e-01
2.340823e-01
2.418193e-01
2.490858e-01
2.556485e-01
2.614329e-01
2.668591e-01
2.462795e-01
2.550249e-01
2.629013e-01
2.700623e-01
2.765176e-01
2.818261e-01
2.870528e-01
2.580154e-01
2.677017e-01
2.766955e-01
2.842902e-01
2.913090e-01
2.978937e-01
3.016049e-01
3.067017e-01
2.693712e-01
2.796214e-01
2.897189e-01
2.991646e-01
3.053206e-01
3.126299e-01
3.212401e-01
3.187095e-01
3.263730e-01
3.439677e-01
3.956197e-01
3.174667e-01
3.362402e-01
3.575607e-01
1.903207e-01
1.783234e-01
1.661797e-01
1.545506e-01
1.447649e-01
1.348482e-01
3.791911e-01
3.045153e-01
3.249278e-01
3.469430e-01
3.692178e-01
3.881677e-01
4.048996e-01
3.459868e-01
3.586114e-01
3.652731e-01
3.731123e-01
3.797830e-01
3.879540e-01
3.964603e-01
4.052275e-01
4.063044e-01
4.105331e-01
4.151916e-01
4.177502e-01
4.212559e-01
4.253742e-01
3.876970e-01
3.983521e-01
4.070832e-01
4.157282e-01
4.241954e-01
4.307000e-01
4.349470e-01
4.036219e-01
4.083087e-01
4.160586e-01
4.255302e-01
4.333046e-01
4.389829e-01
4.436984e-01
4.200359e-01
4.351505e-01
4.330823e-01
4.444868e-01
4.475709e-01
4.518439e-01
4.560678e-01
4.595873e-01
4.336297e-01
4.503330e-01
4.602946e-01
4.663611e-01
4.465548e-01
4.608611e-01
4.671792e-01
4.723219e-01
4.682708e-01
4.784698e-01
2.104187e-01
1.978519e-01
1.852848e-01
1.731421e-01
1.618593e-01
1.508204e-01
1.383078e-01
1.302201e-01
4.752501e-01
4.841564e-01
4.779647e-01
4.852464e-01
4.928638e-01
4.978517e-01
4.951087e-01
4.914903e-01
4.910411e-01
4.871240e-01
4.854384e-01
4.861748e-01
4.784850e-01
4.793571e-01
4.804780e-01
4.818624e-01
4.702929e-01
4.710407e-01
4.722934e-01
4.738858e-01
4.757244e-01
4.611216e-01
4.625047e-01
4.643295e-01
4.664709e-01
4.688056e-01
4.583823e-01
4.612296e-01
4.492863e-01
4.510183e-01
4.531084e-01
4.556112e-01
4.358810e-01
4.378075e-01
4.401133e-01
4.430098e-01
4.463767e-01
4.498285e-01
4.530636e-01
4.215319e-01
4.230341e-01
4.252507e-01
4.284395e-01
4.325340e-01
4.370950e-01
4.409494e-01
4.440582e-01
3.898814e-01
3.908175e-01
4.069670e-01
4.085311e-01
4.115009e-01
4.165188e-01
4.222333e-01
4.289140e-01
4.301126e-01
4.344081e-01
3.877013e-01
4.028804e-01
3.764447e-01
1.645253e-01
1.908053e-01
1.753054e-01
1.960425e-01
1.877905e-01
2.172090e-01
2.105475e-01
2.016860e-01
2.453380e-01
2.341454e-01
2.318693e-01
2.185850e-01
2.054657e-01
1.927296e-01
1.805388e-01
1.686842e-01
1.568203e-01
1.463608e-01
1.357804e-01
2.248880e-01
2.157073e-01
2.707230e-01
2.594995e-01
2.488908e-01
2.390681e-01
2.296707e-01
2.850015e-01
2.735914e-01
2.630346e-01
2.530885e-01
2.435616e-01
3.102744e-01
2.982979e-01
2.872474e-01
2.768920e-01
2.670007e-01
2.574048e-01
3.344151e-01
3.224842e-01
3.111969e-01
3.006600e-01
2.906384e-01
2.808668e-01
2.711954e-01
3.563737e-01
3.459069e-01
3.344273e-01
3.239098e-01
3.140312e-01
3.044180e-01
2.946975e-01
2.848623e-01
3.742047e-01
3.701929e-01
3.564712e-01
3.462164e-01
3.366139e-01
3.276497e-01
3.183087e-01
3.083429e-01
2.982441e-01
4.261760e-01
4.130839e-01
3.967371e-01
3.780967e-01
3.568444e-01
3.341059e-01
3.111194e-01
4.085329e-01
3.910052e-01
3.706819e-01
3.460595e-01
3.231275e-01
1.300263e-01
1.281364e-01
1.309463e-01
1.451956e-01
1.404376e-01
1.491578e-01
1.615285e-01
1.294367e-01
1.421420e-01
1.544171e-01
1.660238e-01
1.788497e-01
1.304926e-01
1.440764e-01
1.571921e-01
1.704017e-01
1.835300e-01
1.971272e-01
2.544916e-01
2.403219e-01
2.266066e-01
2.133509e-01
2.005087e-01
1.880045e-01
1.757483e-01
1.640105e-01
1.523809e-01
1.396286e-01
1.303362e-01
1.269294e-01
1.341652e-01
1.465058e-01
1.598634e-01
1.737184e-01
1.877020e-01
2.019889e-01
2.163818e-01
1.259153e-01
1.293078e-01
1.405212e-01
1.505614e-01
1.630359e-01
1.768811e-01
1.913004e-01
2.061539e-01
2.213176e-01
2.365975e-01
1.330244e-01
1.440888e-01
1.553982e-01
1.670157e-01
1.802556e-01
1.946964e-01
2.098186e-01
2.253380e-01
2.413004e-01
2.582450e-01
2.764723e-01
1.273800e-01
1.380146e-01
1.480705e-01
1.596707e-01
1.715639e-01
1.838959e-01
1.980257e-01
2.132332e-01
2.289114e-01
2.449443e-01
2.612433e-01
2.779007e-01
2.928019e-01
1.281511e-01
1.402396e-01
1.508812e-01
1.636666e-01
1.764031e-01
1.885995e-01
2.009924e-01
2.163707e-01
2.322373e-01
2.483585e-01
2.647464e-01
2.810874e-01
2.977699e-01
3.111630e-01
1.226779e-01
1.298932e-01
1.413191e-01
1.544430e-01
1.645946e-01
1.809838e-01
1.943697e-01
2.065605e-01
2.172950e-01
2.358955e-01
2.513617e-01
2.680718e-01
2.846609e-01
3.004427e-01
3.199467e-01
3.294980e-01
2.780059e-01
2.627830e-01
2.484574e-01
2.348022e-01
2.215409e-01
2.085417e-01
1.957503e-01
1.832315e-01
1.708445e-01
1.583156e-01
1.466125e-01
1.330373e-01
4.990249e-01
4.996610e-01
4.967211e-01
4.984362e-01
4.995720e-01
4.931034e-01
4.959851e-01
4.981050e-01
4.994931e-01
4.837246e-01
4.884023e-01
4.922811e-01
4.954301e-01
4.978418e-01
4.994233e-01
4.655305e-01
4.759908e-01
4.823251e-01
4.872987e-01
4.914642e-01
4.949053e-01
4.975761e-01
4.993461e-01
4.692020e-01
4.753325e-01
4.810528e-01
4.861581e-01
4.905916e-01
4.943152e-01
4.972462e-01
4.992360e-01
4.538646e-01
4.604935e-01
4.670074e-01
4.734987e-01
4.794763e-01
4.848471e-01
4.895580e-01
4.935508e-01
4.967405e-01
4.990087e-01
4.995826e-01
4.403055e-01
4.493766e-01
4.571994e-01
4.645319e-01
4.713827e-01
4.776500e-01
4.832876e-01
4.882478e-01
4.924541e-01
4.957689e-01
4.979720e-01
4.994332e-01
4.143327e-01
4.262590e-01
4.367320e-01
4.458513e-01
4.541609e-01
4.618775e-01
4.690075e-01
4.755222e-01
4.813914e-01
4.865718e-01
4.909994e-01
4.945938e-01
4.973876e-01
4.992873e-01
3.809167e-01
3.980900e-01
4.116394e-01
4.231506e-01
4.332212e-01
4.424378e-01
3.020365e-01
2.855443e-01
2.705828e-01
2.567922e-01
2.433524e-01
2.300560e-01
2.168672e-01
2.037936e-01
1.908129e-01
1.778952e-01
1.651010e-01
1.520907e-01
1.392220e-01
4.510056e-01
4.589571e-01
4.662950e-01
4.730095e-01
4.790727e-01
4.844819e-01
4.892505e-01
4.933670e-01
4.968184e-01
4.991156e-01
1.291649e-01
1.433422e-01
1.585179e-01
1.751574e-01
1.929638e-01
2.118890e-01
2.316156e-01
2.518946e-01
2.724259e-01
2.929398e-01
3.133511e-01
3.336124e-01
3.535397e-01
3.733123e-01
3.920456e-01
4.093236e-01
4.250299e-01
4.399634e-01
4.549701e-01
4.649629e-01
4.742441e-01
4.842518e-01
4.911865e-01
4.964009e-01
3.652734e-01
3.840925e-01
3.968144e-01
4.091180e-01
4.195479e-01
4.294523e-01
4.388271e-01
4.475668e-01
4.556567e-01
4.631560e-01
4.700171e-01
4.761907e-01
4.818471e-01
4.870666e-01
4.916196e-01
4.964340e-01
4.986147e-01
1.300312e-01
1.450047e-01
1.609950e-01
1.783674e-01
1.968586e-01
2.163751e-01
2.366113e-01
2.573255e-01
2.782629e-01
2.992170e-01
3.200231e-01
3.405027e-01
3.604849e-01
3.797227e-01
3.978738e-01
4.147864e-01
4.304381e-01
4.448984e-01
4.575989e-01
4.685943e-01
4.782987e-01
4.866935e-01
4.932635e-01
4.979484e-01
1.309067e-01
1.466872e-01
1.634760e-01
1.815944e-01
2.007970e-01
2.209485e-01
2.417413e-01
2.629349e-01
2.842855e-01
3.055717e-01
3.265822e-01
3.471052e-01
3.669234e-01
3.858112e-01
4.035804e-01
4.201136e-01
4.353218e-01
4.490773e-01
4.612732e-01
4.719805e-01
4.811962e-01
4.888333e-01
4.947071e-01
4.985777e-01
1.318021e-01
1.483888e-01
1.660169e-01
1.849456e-01
2.049107e-01
2.257293e-01
2.470874e-01
2.687400e-01
2.904398e-01
3.263114e-01
3.082714e-01
2.921731e-01
2.789115e-01
2.656743e-01
2.523195e-01
2.389022e-01
2.254831e-01
2.120872e-01
1.986956e-01
1.853755e-01
1.719552e-01
1.584845e-01
1.441181e-01
1.338670e-01
3.119531e-01
3.330549e-01
3.535235e-01
3.731426e-01
3.917191e-01
4.091039e-01
4.251838e-01
4.398607e-01
4.530585e-01
4.647495e-01
4.749225e-01
4.835251e-01
4.904775e-01
4.956553e-01
4.988914e-01
1.326219e-01
1.501488e-01
1.687484e-01
1.885816e-01
2.093511e-01
2.308350e-01
2.527223e-01
2.747704e-01
2.967358e-01
3.183903e-01
3.395140e-01
3.598816e-01
3.792752e-01
3.975126e-01
4.144665e-01
4.300427e-01
4.441679e-01
4.567986e-01
4.679130e-01
4.774755e-01
4.854361e-01
4.917391e-01
4.963124e-01
4.990804e-01
1.335922e-01
1.522441e-01
1.719391e-01
1.927269e-01
2.142911e-01
2.363865e-01
2.587181e-01
2.810608e-01
3.031950e-01
3.249305e-01
3.460479e-01
3.662880e-01
3.854185e-01
4.032573e-01
4.197173e-01
4.347344e-01
4.482701e-01
4.602967e-01
4.707926e-01
4.797129e-01
4.870362e-01
4.927468e-01
4.968111e-01
4.992167e-01
1.350561e-01
1.550079e-01
1.758970e-01
1.976123e-01
2.198945e-01
2.425121e-01
2.651286e-01
2.875955e-01
3.097929e-01
3.316406e-01
3.527723e-01
3.728477e-01
3.916753e-01
4.090239e-01
4.248937e-01
4.392598e-01
4.521941e-01
4.636068e-01
4.734520e-01
4.816911e-01
4.884043e-01
4.936038e-01
4.972388e-01
4.993361e-01
1.371223e-01
1.588443e-01
1.809750e-01
2.033268e-01
2.263458e-01
2.494415e-01
2.719263e-01
2.941054e-01
3.164259e-01
3.387656e-01
3.598262e-01
3.796150e-01
3.982218e-01
4.149222e-01
4.299515e-01
4.434788e-01
4.560683e-01
4.668744e-01
4.759309e-01
4.833750e-01
4.895833e-01
4.944132e-01
3.503151e-01
3.320954e-01
3.114001e-01
3.007580e-01
2.882664e-01
2.751083e-01
2.616424e-01
2.480355e-01
2.343745e-01
2.206925e-01
2.069785e-01
1.932462e-01
1.795047e-01
1.659367e-01
1.538888e-01
1.407286e-01
4.976808e-01
4.994651e-01
1.416913e-01
1.657618e-01
1.863829e-01
2.097528e-01
2.342095e-01
2.579093e-01
2.787549e-01
2.977339e-01
3.241120e-01
3.468431e-01
3.671684e-01
3.863033e-01
4.059189e-01
4.214330e-01
4.338514e-01
4.471245e-01
4.606288e-01
4.705481e-01
4.777121e-01
4.846369e-01
4.905775e-01
4.953804e-01
4.982950e-01
4.995634e-01
4.995210e-01
4.992737e-01
4.978941e-01
4.995493e-01
4.987283e-01
4.970780e-01
4.949530e-01
4.992708e-01
4.978689e-01
4.959815e-01
4.934926e-01
4.906034e-01
4.986776e-01
4.969674e-01
4.946575e-01
4.918070e-01
4.884640e-01
4.847451e-01
4.993326e-01
4.974199e-01
4.957538e-01
4.931748e-01
4.899355e-01
4.861560e-01
4.819267e-01
4.772927e-01
4.683395e-01
4.990863e-01
4.971304e-01
4.944987e-01
4.915547e-01
4.879338e-01
4.837122e-01
4.789901e-01
4.738592e-01
4.581753e-01
4.995283e-01
4.985849e-01
4.964752e-01
4.935128e-01
4.899536e-01
4.858720e-01
4.811881e-01
4.759573e-01
4.702858e-01
4.643109e-01
4.468455e-01
4.992726e-01
4.977743e-01
4.955518e-01
4.923692e-01
4.884108e-01
4.838243e-01
4.786491e-01
4.728948e-01
4.666292e-01
4.600147e-01
4.533166e-01
4.987821e-01
4.970238e-01
4.944677e-01
4.910638e-01
4.867998e-01
4.817955e-01
4.761410e-01
4.698732e-01
4.630227e-01
4.556482e-01
4.480786e-01
4.407766e-01
4.336544e-01
4.178916e-01
4.994537e-01
4.977880e-01
4.961028e-01
4.933587e-01
4.896810e-01
4.851220e-01
4.797532e-01
4.736704e-01
4.669292e-01
4.595523e-01
4.515601e-01
4.427566e-01
4.342865e-01
4.267868e-01
3.576502e-01
3.729492e-01
4.992729e-01
4.977721e-01
4.953291e-01
4.922943e-01
4.883288e-01
4.834441e-01
4.777103e-01
4.712239e-01
4.640648e-01
4.562266e-01
4.477267e-01
4.387071e-01
4.264786e-01
4.189774e-01
4.126156e-01
3.960568e-01
1.160000e-01
1.160000e-01
1.160000e-01
1.160000e-01
1.160000e-01
1.160000e-01
1.160000e-01
1.160000e-01
1.160000e-01
1.160000e-01
1.160000e-01
1.160000e-01
1.160000e-01
1.160000e-01
1.160000e-01
1.160000e-01
1.160000e-01
1.160000e-01
1.160000e-01
1.160000e-01
1.160000e-01
1.160000e-01
1.160000e-01
1.160000e-01
1.160000e-01
1.160000e-01
1.160000e-01
1.160000e-01
1.160000e-01
1.160000e-01
1.160000e-01
1.160000e-01
1.160000e-01
1.160000e-01
1.160000e-01
1.160000e-01
1.160000e-01
1.160000e-01
1.160000e-01
1.160000e-01
1.160000e-01
1.160000e-01
1.160000e-01
1.160000e-01
1.160000e-01
1.160000e-01
1.160000e-01
1.160000e-01
1.160000e-01
1.160000e-01
1.160000e-01
1.160000e-01
1.160000e-01
1.160000e-01
1.160000e-01
1.160000e-01
1.160000e-01
1.160000e-01
1.160000e-01
1.160000e-01
1.160000e-01
1.160000e-01
1.160000e-01
1.160000e-01
1.160000e-01
1.160000e-01
1.160000e-01
1.160000e-01
1.160000e-01
1.160000e-01
1.160000e-01
1.160000e-01
1.160000e-01
1.160000e-01
1.160000e-01
1.160000e-01
1.160000e-01
1.160000e-01
1.160000e-01
1.160000e-01
1.160000e-01
1.160000e-01
1.160000e-01
1.160000e-01
1.160000e-01
1.160000e-01
1.160000e-01
1.160000e-01
1.160000e-01
1.160000e-01
1.160000e-01
1.160000e-01
1.160000e-01
1.160000e-01
1.160000e-01
1.160000e-01
1.160000e-01
1.160000e-01
1.160000e-01
1.160000e-01
1.160000e-01
1.160000e-01
1.160000e-01
1.160000e-01
1.160000e-01
1.160000e-01
1.160000e-01
1.160000e-01
1.160000e-01
1.160000e-01
1.160000e-01
1.160000e-01
1.160000e-01
1.160000e-01
1.160000e-01
1.160000e-01
1.160000e-01
1.160000e-01
1.160000e-01
1.160000e-01
1.160000e-01
1.160000e-01
1.160000e-01
1.160000e-01
1.160000e-01
1.160000e-01
1.160000e-01
1.160000e-01
1.160000e-01
1.160000e-01
1.160000e-01
1.160000e-01
1.160000e-01
1.160000e-01
1.160000e-01
1.160000e-01
1.160000e-01
1.160000e-01
1.160000e-01
1.160000e-01
1.160000e-01
1.160000e-01
1.160000e-01
1.160000e-01
1.160000e-01
1.160000e-01
1.160000e-01
1.160000e-01
1.160000e-01
1.160000e-01
1.160000e-01
1.160000e-01
1.160000e-01
1.160000e-01
1.160000e-01
1.160000e-01
1.160000e-01
1.160000e-01
1.160000e-01
1.160000e-01
1.160000e-01
1.160000e-01
1.160000e-01
1.160000e-01
1.160000e-01
1.160000e-01
1.160000e-01
1.160000e-01
1.160000e-01
1.160000e-01
1.160000e-01
1.160000e-01
1.160000e-01
1.160000e-01
1.160000e-01
1.160000e-01
1.160000e-01
1.160000e-01
1.160000e-01
1.160000e-01
1.160000e-01
1.160000e-01
1.160000e-01
1.160000e-01
1.160000e-01
1.160000e-01
1.160000e-01
1.160000e-01
1.160000e-01
1.160000e-01
1.160000e-01
1.160000e-01
1.160000e-01
1.160000e-01
1.160000e-01
1.160000e-01
1.160000e-01
1.160000e-01
1.160000e-01
1.160000e-01
1.160000e-01
1.160000e-01
1.160000e-01
1.160000e-01
1.160000e-01
1.160000e-01
1.160000e-01
1.160000e-01
1.160000e-01
1.160000e-01
1.160000e-01
1.160000e-01
1.160000e-01
1.160000e-01
1.160000e-01
1.160000e-01
1.160000e-01
1.160000e-01
1.160000e-01
1.160000e-01
1.160000e-01
1.160000e-01
1.160000e-01
1.160000e-01
1.160000e-01
1.160000e-01
1.160000e-01
1.160000e-01
1.160000e-01
1.160000e-01
1.160000e-01
1.160000e-01
1.160000e-01
1.160000e-01
1.160000e-01
1.160000e-01
1.160000e-01
1.160000e-01
1.160000e-01
1.160000e-01
1.160000e-01
1.160000e-01
1.160000e-01
1.160000e-01
1.160000e-01
1.160000e-01
1.160000e-01
1.160000e-01
1.160000e-01
1.160000e-01
1.160000e-01
1.160000e-01
1.160000e-01
1.160000e-01
1.160000e-01
1.160000e-01
1.160000e-01
1.160000e-01
1.160000e-01
1.160000e-01
1.160000e-01
1.160000e-01
1.160000e-01
1.160000e-01
1.160000e-01
1.160000e-01
1.160000e-01
1.160000e-01
1.160000e-01
1.160000e-01
1.160000e-01
1.160000e-01
1.160000e-01
1.160000e-01
1.160000e-01
1.160000e-01
1.160000e-01
1.160000e-01
1.160000e-01
1.160000e-01
1.160000e-01
1.160000e-01
1.160000e-01
1.160000e-01
1.160000e-01
1.160000e-01
1.160000e-01
1.160000e-01
1.160000e-01
1.160000e-01
1.160000e-01
1.160000e-01
1.160000e-01
1.160000e-01
1.160000e-01
1.160000e-01
1.160000e-01
1.160000e-01
1.160000e-01
1.160000e-01
1.160000e-01
1.160000e-01
1.160000e-01
1.160000e-01
1.160000e-01
1.160000e-01
1.160000e-01
1.160000e-01
1.160000e-01
1.160000e-01
1.160000e-01
1.160000e-01
1.160000e-01
1.160000e-01
1.160000e-01
1.160000e-01
1.160000e-01
1.160000e-01
1.160000e-01
1.160000e-01
1.160000e-01
1.160000e-01
1.160000e-01
1.160000e-01
1.160000e-01
1.160000e-01
1.160000e-01
1.160000e-01
1.160000e-01
1.160000e-01
1.160000e-01
1.160000e-01
1.160000e-01
1.160000e-01
1.160000e-01
1.160000e-01
1.160000e-01
1.160000e-01
1.160000e-01
1.160000e-01
1.160000e-01
1.160000e-01
1.160000e-01
1.160000e-01
1.160000e-01
1.160000e-01
1.160000e-01
1.160000e-01
1.160000e-01
1.160000e-01
1.160000e-01
1.160000e-01
1.160000e-01
1.160000e-01
1.160000e-01
1.160000e-01
1.160000e-01
1.160000e-01
1.160000e-01
1.160000e-01
1.160000e-01
1.160000e-01
1.160000e-01
1.160000e-01
1.160000e-01
1.160000e-01
1.160000e-01
1.160000e-01
1.160000e-01
1.160000e-01
2.660000e-01
2.660000e-01
2.660000e-01
2.660000e-01
2.660000e-01
2.660000e-01
2.660000e-01
2.660000e-01
2.660000e-01
2.660000e-01
2.660000e-01
2.660000e-01
2.660000e-01
2.660000e-01
2.660000e-01
2.660000e-01
2.660000e-01
2.660000e-01
2.660000e-01
2.660000e-01
2.660000e-01
2.660000e-01
2.660000e-01
2.660000e-01
2.660000e-01
2.660000e-01
2.660000e-01
2.660000e-01
2.660000e-01
2.660000e-01
2.660000e-01
2.660000e-01
2.660000e-01
2.174046e-01
2.101326e-01
2.286130e-01
2.143532e-01
2.202505e-01
2.061990e-01
2.057274e-01
1.996521e-01
1.953190e-01
2.180860e-01
2.116930e-01
2.058101e-01
2.169203e-01
2.045936e-01
2.141416e-01
1.334864e-01
2.641402e-01
2.611778e-01
2.545263e-01
2.576008e-01
2.553626e-01
2.493518e-01
2.557450e-01
2.518526e-01
2.478411e-01
2.485797e-01
2.437500e-01
2.387167e-01
2.442931e-01
2.391446e-01
2.340969e-01
2.283219e-01
2.622992e-01
2.393409e-01
2.337513e-01
2.280351e-01
2.244678e-01
2.169601e-01
2.148061e-01
2.197006e-01
2.074126e-01
2.347879e-01
2.244618e-01
2.649588e-01
2.124579e-01
1.981352e-01
2.044789e-01
1.986557e-01
1.925423e-01
1.876819e-01
1.854060e-01
1.897992e-01
1.838152e-01
1.790992e-01
1.755482e-01
1.804108e-01
1.731430e-01
1.696838e-01
1.659841e-01
1.624155e-01
1.597026e-01
1.565210e-01
1.494844e-01
1.470634e-01
1.368420e-01
1.733439e-01
1.582130e-01
1.462319e-01
1.365707e-01
1.260912e-01
2.544134e-01
2.492381e-01
2.652461e-01
2.625867e-01
2.641208e-01
2.584068e-01
2.605059e-01
2.556215e-01
2.498107e-01
2.584891e-01
2.618713e-01
2.646686e-01
1.516050e-01
1.400389e-01
1.271458e-01
1.510792e-01
1.372364e-01
1.241670e-01
2.541178e-01
2.489405e-01
2.651694e-01
2.624166e-01
2.639890e-01
2.582006e-01
2.602850e-01
2.553110e-01
2.494270e-01
1.511115e-01
1.398269e-01
1.271425e-01
1.516770e-01
1.376535e-01
1.243111e-01
2.651079e-01
2.622354e-01
2.637576e-01
2.579252e-01
2.598788e-01
2.549384e-01
2.493951e-01
1.522435e-01
1.404665e-01
1.271689e-01
2.648744e-01
2.611932e-01
2.573897e-01
2.545953e-01
2.510357e-01
2.495657e-01
2.408880e-01
1.514874e-01
1.383919e-01
1.250488e-01
1.765494e-01
1.633315e-01
1.498851e-01
1.351488e-01
1.241239e-01
2.550918e-01
2.501677e-01
2.652126e-01
2.625445e-01
2.640655e-01
2.583772e-01
2.604729e-01
2.554544e-01
2.497032e-01
1.540279e-01
1.419845e-01
1.283746e-01
1.517557e-01
1.381595e-01
2.456457e-01
2.521664e-01
2.568350e-01
2.606663e-01
1.246692e-01
2.651787e-01
2.625968e-01
2.588526e-01
1.538220e-01
1.419768e-01
1.275740e-01
2.526517e-01
2.470849e-01
2.649205e-01
2.618844e-01
2.636210e-01
2.573895e-01
2.593504e-01
2.513107e-01
2.534955e-01
2.436989e-01
2.469325e-01
1.723088e-01
1.599413e-01
1.475913e-01
1.365278e-01
1.253828e-01
1.484674e-01
1.354610e-01
1.235564e-01
2.649149e-01
2.616428e-01
2.632062e-01
2.568708e-01
2.590452e-01
2.539954e-01
2.482088e-01
2.346976e-01
1.497543e-01
1.393103e-01
1.264727e-01
2.653929e-01
2.621257e-01
2.574504e-01
2.540923e-01
2.504749e-01
2.488294e-01
2.397070e-01
1.511142e-01
1.375123e-01
1.246311e-01
1.751830e-01
1.622489e-01
1.491634e-01
1.347203e-01
1.239028e-01
2.538014e-01
2.485316e-01
2.650464e-01
2.621829e-01
2.638561e-01
2.579122e-01
2.599457e-01
2.545540e-01
2.484858e-01
1.529003e-01
1.411481e-01
1.279358e-01
1.500115e-01
1.370698e-01
1.241902e-01
2.542191e-01
2.490540e-01
2.650756e-01
2.256745e-01
2.621624e-01
2.638852e-01
2.577818e-01
2.601069e-01
2.550858e-01
2.491413e-01
1.513220e-01
1.396849e-01
1.267490e-01
1.490737e-01
1.364180e-01
1.239145e-01
2.650538e-01
2.620822e-01
2.635772e-01
2.577657e-01
2.593170e-01
2.535461e-01
2.475217e-01
1.499528e-01
1.392678e-01
1.264022e-01
2.649324e-01
2.626216e-01
2.594462e-01
2.530230e-01
2.535174e-01
2.476438e-01
2.431596e-01
1.500617e-01
1.367468e-01
1.241534e-01
1.791570e-01
1.660861e-01
1.498894e-01
1.372484e-01
1.261208e-01
2.650099e-01
2.617987e-01
2.629327e-01
2.430539e-01
2.496915e-01
2.549201e-01
2.589446e-01
2.615233e-01
2.644479e-01
2.570381e-01
2.586375e-01
2.531495e-01
2.472186e-01
1.499421e-01
1.388951e-01
1.267973e-01
2.651423e-01
2.610980e-01
2.541212e-01
2.487212e-01
2.417049e-01
1.506742e-01
1.373876e-01
1.242806e-01
1.272419e-01
2.591548e-01
2.566273e-01
2.520593e-01
2.516737e-01
2.441670e-01
2.427192e-01
2.451796e-01
2.363112e-01
2.266419e-01
2.307187e-01
2.353299e-01
2.380143e-01
2.177455e-01
2.236140e-01
2.286265e-01
2.278836e-01
2.002998e-01
1.893842e-01
1.808710e-01
1.723531e-01
1.631131e-01
1.526340e-01
1.425132e-01
1.359024e-01
1.271665e-01
1.415245e-01
1.465729e-01
1.556867e-01
1.564183e-01
1.712286e-01
1.679967e-01
1.653993e-01
1.817990e-01
1.780318e-01
1.750126e-01
1.839656e-01
1.955433e-01
1.909565e-01
1.870902e-01
2.082416e-01
2.040089e-01
1.991209e-01
1.954539e-01
1.927991e-01
2.214411e-01
2.019562e-01
2.109561e-01
2.154763e-01
2.633940e-01
1.262872e-01
2.646431e-01
2.643500e-01
2.628140e-01
2.604987e-01
2.653554e-01
2.549495e-01
2.521592e-01
2.488159e-01
2.263901e-01
2.327776e-01
2.404666e-01
2.473880e-01
2.530695e-01
2.575528e-01
2.610612e-01
2.639722e-01
2.653477e-01
2.638595e-01
2.612419e-01
2.575499e-01
2.359623e-01
2.650516e-01
2.630178e-01
2.601086e-01
2.559681e-01
2.511920e-01
2.465629e-01
2.418810e-01
2.655653e-01
2.644393e-01
2.614997e-01
2.593180e-01
2.538669e-01
2.486320e-01
2.438343e-01
2.399201e-01
2.319844e-01
2.253504e-01
1.317885e-01
1.241884e-01
1.533917e-01
1.453487e-01
1.349568e-01
1.268708e-01
1.565890e-01
1.435643e-01
1.898214e-01
1.832637e-01
1.732384e-01
1.601755e-01
1.493118e-01
1.399129e-01
1.311764e-01
1.246348e-01
1.743276e-01
1.638529e-01
2.520627e-01
2.443441e-01
2.359872e-01
2.256278e-01
2.137535e-01
2.006137e-01
1.869547e-01
2.651801e-01
2.631722e-01
2.587510e-01
2.519287e-01
2.433123e-01
2.324971e-01
2.212314e-01
2.091382e-01
1.968663e-01
1.863005e-01
1.742893e-01
1.641953e-01
1.528642e-01
1.396791e-01
1.286635e-01
2.031782e-01
1.948111e-01
1.848414e-01
1.734085e-01
1.627280e-01
1.530050e-01
1.439645e-01
1.358632e-01
1.274860e-01
1.243166e-01
2.385154e-01
2.300037e-01
2.189212e-01
2.059793e-01
1.440759e-01
1.384603e-01
1.280731e-01
1.899755e-01
1.763714e-01
1.629222e-01
1.490477e-01
1.363536e-01
1.262039e-01
2.517583e-01
2.439303e-01
2.352257e-01
2.242804e-01
2.122992e-01
1.996069e-01
1.864890e-01
1.729646e-01
1.609932e-01
1.481687e-01
2.649900e-01
2.629662e-01
2.585749e-01
2.524008e-01
2.433582e-01
2.304627e-01
2.185441e-01
2.059966e-01
1.932907e-01
1.815583e-01
2.649690e-01
2.617952e-01
2.573010e-01
2.523848e-01
2.453959e-01