VARIABLES = "X" "Y" "Z" "FREF"
ZONE T="instant 057"
STRANDID=0, SOLUTIONTIME=0
Nodes=3151, Elements=6298
ZONETYPE=FETriangle
DATAPACKING=BLOCK
VARLOCATION = ([1-3]=NODAL, [4]=CELLCENTERED)
5.000000e-01
1.888775e-01
2.077402e-01
2.242724e-01
2.392215e-01
2.562981e-01
2.743270e-01
2.932199e-01
3.132380e-01
3.339785e-01
3.544842e-01
3.736019e-01
3.916131e-01
4.087398e-01
4.245576e-01
4.384978e-01
4.502506e-01
4.591782e-01
4.673480e-01
4.758587e-01
4.832606e-01
4.891467e-01
4.934922e-01
4.966671e-01
4.987160e-01
4.997619e-01
1.732000e-01
1.732000e-01
1.732000e-01
1.732000e-01
1.732000e-01
1.732000e-01
1.732000e-01
1.732000e-01
1.732000e-01
1.732000e-01
1.732000e-01
1.732000e-01
3.224459e-01
3.208102e-01
3.169646e-01
3.108175e-01
3.035767e-01
2.983642e-01
2.917790e-01
2.833633e-01
2.751047e-01
2.672221e-01
2.587604e-01
2.490273e-01
2.409374e-01
2.331938e-01
2.256645e-01
2.164881e-01
2.073710e-01
2.003792e-01
1.920242e-01
1.828685e-01
3.232000e-01
4.843814e-01
4.663765e-01
4.501776e-01
4.339676e-01
4.159867e-01
3.975761e-01
3.809462e-01
3.650167e-01
3.491407e-01
3.352060e-01
3.648877e-01
2.138551e-01
2.034871e-01
3.781444e-01
3.562353e-01
2.183608e-01
2.284508e-01
2.100273e-01
2.311309e-01
1.920530e-01
2.320557e-01
2.192147e-01
2.363356e-01
2.479147e-01
4.856313e-01
2.610210e-01
2.770638e-01
2.542726e-01
2.653425e-01
3.119850e-01
3.245797e-01
3.619458e-01
3.407505e-01
3.425653e-01
3.726044e-01
3.843090e-01
3.623162e-01
4.789732e-01
4.690398e-01
3.747994e-01
3.933541e-01
3.854771e-01
4.045724e-01
3.979923e-01
4.098078e-01
3.342293e-01
3.588561e-01
3.464367e-01
3.272145e-01
2.108627e-01
1.970006e-01
1.878762e-01
1.900819e-01
1.897716e-01
2.059336e-01
2.219095e-01
1.906517e-01
2.068237e-01
2.229163e-01
2.394404e-01
1.829431e-01
1.941726e-01
2.085642e-01
2.243945e-01
4.821268e-01
2.403665e-01
2.569712e-01
2.577315e-01
2.749726e-01
2.600889e-01
2.748933e-01
2.931031e-01
1.898879e-01
2.076091e-01
2.248926e-01
2.426271e-01
2.362545e-01
2.360077e-01
2.458050e-01
2.544467e-01
2.733084e-01
2.884039e-01
2.986888e-01
3.119498e-01
1.890249e-01
2.054039e-01
2.228781e-01
2.421517e-01
2.576850e-01
2.718194e-01
2.886909e-01
2.747522e-01
2.864814e-01
2.910542e-01
3.044037e-01
3.185168e-01
3.352113e-01
2.516284e-01
2.652418e-01
2.789933e-01
3.050350e-01
4.764044e-01
4.660586e-01
4.585494e-01
4.493910e-01
3.208063e-01
3.368810e-01
3.545120e-01
2.572702e-01
2.923478e-01
3.069021e-01
3.227099e-01
3.377046e-01
3.542766e-01
3.723233e-01
2.716299e-01
2.864537e-01
3.018958e-01
3.096695e-01
3.253776e-01
3.429547e-01
4.701835e-01
4.585328e-01
4.484318e-01
4.395527e-01
4.296232e-01
3.535892e-01
3.702135e-01
3.887954e-01
3.231099e-01
3.418954e-01
3.647322e-01
3.843237e-01
4.040721e-01
2.762578e-01
2.911574e-01
3.069244e-01
3.239146e-01
3.607845e-01
3.798941e-01
3.991061e-01
4.185639e-01
3.414978e-01
3.591479e-01
3.767406e-01
3.950292e-01
4.131520e-01
4.318983e-01
4.202178e-01
4.323861e-01
2.935373e-01
3.088750e-01
3.252211e-01
3.424257e-01
3.599296e-01
3.765979e-01
3.912894e-01
4.102329e-01
4.260207e-01
4.444950e-01
3.872793e-01
3.948708e-01
4.627298e-01
4.507341e-01
4.401883e-01
4.303427e-01
4.212582e-01
4.124622e-01
4.018692e-01
4.029029e-01
4.120315e-01
4.218952e-01
4.307743e-01
4.417757e-01
4.541258e-01
1.732000e-01
4.996638e-01
4.976700e-01
4.942763e-01
4.896299e-01
4.821681e-01
4.735294e-01
4.625047e-01
4.489017e-01
4.320537e-01
4.146980e-01
3.989856e-01
3.821219e-01
3.644784e-01
3.459786e-01
3.300196e-01
3.166579e-01
3.033456e-01
2.887499e-01
2.733463e-01
2.579479e-01
2.427484e-01
2.276709e-01
2.129444e-01
1.985990e-01
1.850998e-01
5.000000e-01
3.350360e-01
3.491862e-01
3.649499e-01
3.822178e-01
3.988937e-01
4.151530e-01
4.325401e-01
4.514924e-01
4.698485e-01
4.864316e-01
3.232000e-01
1.825563e-01
1.918150e-01
2.027890e-01
2.154013e-01
2.257577e-01
2.357585e-01
2.455638e-01
2.552953e-01
2.638075e-01
2.702122e-01
2.786328e-01
2.862416e-01
2.922956e-01
2.972882e-01
3.019939e-01
3.084611e-01
3.132582e-01
3.159937e-01
3.185040e-01
3.209296e-01
3.226807e-01
1.732000e-01
1.732000e-01
1.732000e-01
1.732000e-01
1.732000e-01
1.732000e-01
1.732000e-01
1.732000e-01
1.732000e-01
1.732000e-01
1.732000e-01
3.653407e-01
3.945164e-01
2.075994e-01
2.364939e-01
2.279730e-01
3.327544e-01
3.397997e-01
3.530949e-01
3.513562e-01
3.716546e-01
3.722853e-01
3.802517e-01
3.621556e-01
4.173205e-01
1.867423e-01
4.043807e-01
3.833788e-01
4.073640e-01
3.691469e-01
3.970979e-01
3.844183e-01
4.134722e-01
4.004944e-01
1.906588e-01
2.361851e-01
2.105114e-01
2.013956e-01
1.902771e-01
2.308479e-01
2.561601e-01
2.224356e-01
2.553390e-01
2.416551e-01
2.651318e-01
2.521090e-01
2.747100e-01
2.863571e-01
1.967776e-01
3.360911e-01
1.894303e-01
1.996142e-01
2.156978e-01
3.270074e-01
3.412989e-01
3.533692e-01
4.815408e-01
4.628212e-01
4.729159e-01
4.781009e-01
4.362982e-01
4.450910e-01
4.528340e-01
4.598160e-01
2.155535e-01
2.041839e-01
1.886316e-01
4.696185e-01
4.333164e-01
4.406509e-01
4.479075e-01
4.628932e-01
4.226652e-01
4.261877e-01
4.459063e-01
4.537211e-01
3.258034e-01
3.343469e-01
3.426444e-01
4.042172e-01
4.184132e-01
4.370842e-01
3.897857e-01
4.077803e-01
4.140749e-01
4.217957e-01
4.272860e-01
4.303612e-01
4.342627e-01
3.123129e-01
3.529199e-01
3.667335e-01
3.872456e-01
3.974921e-01
4.108289e-01
4.226609e-01
3.160793e-01
3.234330e-01
3.309283e-01
3.759724e-01
3.881736e-01
2.304309e-01
2.193178e-01
3.986455e-01
4.075855e-01
2.977730e-01
3.411901e-01
3.500711e-01
3.684678e-01
3.764126e-01
3.847717e-01
3.920639e-01
3.019178e-01
3.087680e-01
3.152742e-01
3.544168e-01
3.631303e-01
3.699345e-01
3.762014e-01
3.230506e-01
2.446911e-01
2.318696e-01
2.177514e-01
2.032704e-01
1.881667e-01
3.279526e-01
3.438437e-01
3.486973e-01
3.542518e-01
3.597013e-01
2.792702e-01
2.839387e-01
2.908498e-01
2.977203e-01
3.279392e-01
3.327928e-01
3.383284e-01
3.429842e-01
3.028568e-01
3.059879e-01
3.113157e-01
3.177293e-01
3.231591e-01
3.260760e-01
1.903875e-01
2.074153e-01
2.276228e-01
2.439529e-01
2.594428e-01
2.751100e-01
2.907691e-01
2.577941e-01
2.612576e-01
2.764599e-01
2.789269e-01
2.824434e-01
2.887127e-01
2.965699e-01
3.057347e-01
3.064830e-01
3.078932e-01
2.594846e-01
2.461758e-01
2.330204e-01
2.197566e-01
2.054337e-01
1.896947e-01
2.634429e-01
2.761621e-01
2.901618e-01
2.376386e-01
2.486920e-01
2.611349e-01
2.747211e-01
5.000000e-01
5.000000e-01
5.000000e-01
5.000000e-01
5.000000e-01
5.000000e-01
5.000000e-01
5.000000e-01
5.000000e-01
5.000000e-01
5.000000e-01
5.000000e-01
5.000000e-01
5.000000e-01
5.000000e-01
5.000000e-01
5.000000e-01
5.000000e-01
5.000000e-01
5.000000e-01
5.000000e-01
5.000000e-01
5.000000e-01
5.000000e-01
5.000000e-01
5.000000e-01
5.000000e-01
5.000000e-01
5.000000e-01
5.000000e-01
5.000000e-01
5.000000e-01
5.000000e-01
1.732000e-01
1.732000e-01
1.732000e-01
1.732000e-01
1.732000e-01
1.732000e-01
1.732000e-01
1.732000e-01
1.732000e-01
1.732000e-01
1.732000e-01
1.732000e-01
1.732000e-01
1.732000e-01
1.732000e-01
1.732000e-01
1.732000e-01
1.732000e-01
1.732000e-01
1.732000e-01
1.732000e-01
1.732000e-01
1.732000e-01
1.732000e-01
1.732000e-01
1.732000e-01
1.732000e-01
1.732000e-01
1.732000e-01
1.732000e-01
1.732000e-01
1.732000e-01
1.732000e-01
3.540289e-01
3.648308e-01
3.606380e-01
3.711339e-01
3.823026e-01
4.080921e-01
3.888110e-01
3.971423e-01
3.180965e-01
3.273463e-01
3.353363e-01
3.362922e-01
3.440677e-01
3.502748e-01
3.551948e-01
3.802075e-01
3.624785e-01
3.533927e-01
3.703439e-01
3.874413e-01
3.452435e-01
3.449881e-01
1.950735e-01
1.863951e-01
3.597693e-01
3.767404e-01
3.940180e-01
3.762579e-01
3.872035e-01
3.985493e-01
3.919231e-01
4.022380e-01
4.067295e-01
4.275005e-01
3.932530e-01
4.061286e-01
3.874664e-01
4.126653e-01
3.965070e-01
3.797727e-01
4.184737e-01
4.029731e-01
3.885588e-01
3.739412e-01
4.173374e-01
4.292011e-01
4.256292e-01
4.138058e-01
4.040994e-01
2.127162e-01
2.019060e-01
1.894067e-01
3.686213e-01
3.792770e-01
3.883134e-01
3.608704e-01
3.710804e-01
3.530593e-01
1.865018e-01
1.965766e-01
1.986750e-01
2.088411e-01
2.114349e-01
2.195639e-01
2.220757e-01
2.248951e-01
2.259625e-01
2.322379e-01
2.358058e-01
2.389860e-01
2.403978e-01
2.460386e-01
2.500795e-01
2.536113e-01
2.491540e-01
2.553957e-01
2.606658e-01
2.649073e-01
2.687031e-01
2.592894e-01
2.650801e-01
2.708487e-01
2.759084e-01
2.801986e-01
2.841538e-01
2.691193e-01
2.295110e-01
2.186113e-01
2.070337e-01
1.950845e-01
1.873498e-01
2.752716e-01
2.811678e-01
2.867108e-01
2.916474e-01
2.958222e-01
2.998179e-01
2.849375e-01
2.916303e-01
2.975101e-01
3.029169e-01
3.078136e-01
3.115548e-01
3.154912e-01
2.938944e-01
3.015749e-01
3.085109e-01
3.140234e-01
3.193865e-01
3.245326e-01
3.269161e-01
3.309686e-01
3.028395e-01
3.108182e-01
3.187336e-01
3.260848e-01
3.302803e-01
3.360839e-01
3.427627e-01
3.405281e-01
3.467691e-01
3.622691e-01
4.037076e-01
3.409381e-01
3.560341e-01
3.728529e-01
2.463888e-01
2.357002e-01
2.245295e-01
2.133716e-01
2.034931e-01
1.935440e-01
3.899595e-01
3.303964e-01
3.466786e-01
3.641339e-01
3.817030e-01
3.972936e-01
4.116492e-01
3.626014e-01
3.724697e-01
3.784110e-01
3.846751e-01
3.901940e-01
3.971832e-01
4.044698e-01
4.117859e-01
4.125431e-01
4.163005e-01
4.205093e-01
4.225810e-01
4.256646e-01
4.294196e-01
3.971765e-01
4.060497e-01
4.136147e-01
4.210778e-01
4.283583e-01
4.341536e-01
4.379771e-01
4.107912e-01
4.146088e-01
4.214244e-01
4.298967e-01
4.366683e-01
4.416722e-01
4.459555e-01
4.251212e-01
4.385899e-01
4.366892e-01
4.469664e-01
4.495845e-01
4.534837e-01
4.575404e-01
4.607462e-01
4.373191e-01
4.524263e-01
4.616119e-01
4.672171e-01
4.490497e-01
4.622160e-01
4.681465e-01
4.729639e-01
4.691960e-01
4.788979e-01
2.639378e-01
2.531164e-01
2.420242e-01
2.309527e-01
2.203015e-01
2.095603e-01
1.970176e-01
1.882231e-01
4.758166e-01
4.844147e-01
4.784360e-01
4.854530e-01
4.929264e-01
4.980175e-01
4.955278e-01
4.922932e-01
4.918192e-01
4.884427e-01
4.867363e-01
4.874928e-01
4.804378e-01
4.813565e-01
4.824903e-01
4.838457e-01
4.730225e-01
4.738952e-01
4.751913e-01
4.767638e-01
4.785286e-01
4.650462e-01
4.665117e-01
4.683232e-01
4.703837e-01
4.725820e-01
4.634856e-01
4.661189e-01
4.546329e-01
4.564153e-01
4.584815e-01
4.608796e-01
4.429225e-01
4.449192e-01
4.471923e-01
4.499409e-01
4.530706e-01
4.562528e-01
4.591906e-01
4.304097e-01
4.321842e-01
4.344363e-01
4.374432e-01
4.411902e-01
4.452777e-01
4.487876e-01
4.515307e-01
4.040968e-01
4.054788e-01
4.184800e-01
4.203024e-01
4.231488e-01
4.277080e-01
4.326519e-01
4.383998e-01
4.395734e-01
4.434648e-01
4.057999e-01
4.182213e-01
3.971474e-01
2.181468e-01
2.412945e-01
2.284479e-01
2.465123e-01
2.400477e-01
2.637889e-01
2.593198e-01
2.524892e-01
2.863988e-01
2.784239e-01
2.821494e-01
2.709354e-01
2.596906e-01
2.485228e-01
2.375411e-01
2.265687e-01
2.152310e-01
2.047439e-01
1.941691e-01
2.717126e-01
2.648111e-01
3.070360e-01
2.987189e-01
2.910691e-01
2.839020e-01
2.769356e-01
3.190084e-01
3.107279e-01
3.031074e-01
2.958788e-01
2.888729e-01
3.390207e-01
3.303230e-01
3.223249e-01
3.148578e-01
3.076953e-01
3.006542e-01
3.582453e-01
3.495815e-01
3.413139e-01
3.336866e-01
3.264755e-01
3.194085e-01
3.122783e-01
3.759858e-01
3.684594e-01
3.598329e-01
3.521307e-01
3.449770e-01
3.380917e-01
3.310124e-01
3.236661e-01
3.907653e-01
3.881394e-01
3.775496e-01
3.700017e-01
3.628677e-01
3.564572e-01
3.497590e-01
3.422993e-01
3.347012e-01
4.368563e-01
4.260545e-01
4.126602e-01
3.976340e-01
3.810071e-01
3.633611e-01
3.453068e-01
4.226808e-01
4.082292e-01
3.919774e-01
3.732195e-01
3.553369e-01
1.870948e-01
1.855377e-01
1.881756e-01
2.017142e-01
1.974631e-01
2.054964e-01
2.167117e-01
1.865410e-01
1.988955e-01
2.104884e-01
2.206697e-01
2.317502e-01
1.873436e-01
2.003534e-01
2.126988e-01
2.244314e-01
2.355970e-01
2.469372e-01
3.009800e-01
2.891325e-01
2.775817e-01
2.662628e-01
2.551005e-01
2.439877e-01
2.328012e-01
2.217648e-01
2.105032e-01
1.978026e-01
1.878804e-01
1.840122e-01
1.908064e-01
2.023585e-01
2.146896e-01
2.269364e-01
2.389232e-01
2.506845e-01
2.623772e-01
1.832755e-01
1.864245e-01
1.970002e-01
2.060909e-01
2.172289e-01
2.292654e-01
2.415346e-01
2.537906e-01
2.660276e-01
2.781907e-01
1.901303e-01
2.004690e-01
2.106725e-01
2.206490e-01
2.319319e-01
2.440017e-01
2.563939e-01
2.689205e-01
2.815674e-01
2.946301e-01
3.090099e-01
1.846949e-01
1.950149e-01
2.044049e-01
2.146024e-01
2.246843e-01
2.349245e-01
2.466039e-01
2.588607e-01
2.714427e-01
2.841773e-01
2.969970e-01
3.100646e-01
3.220198e-01
1.855951e-01
1.971102e-01
2.072049e-01
2.183460e-01
2.289642e-01
2.389275e-01
2.489163e-01
2.614035e-01
2.737946e-01
2.866248e-01
2.995244e-01
3.123991e-01
3.258788e-01
3.364596e-01
1.801377e-01
1.875428e-01
1.983028e-01
2.103994e-01
2.192970e-01
2.330940e-01
2.437509e-01
2.535266e-01
2.621636e-01
2.768769e-01
2.886438e-01
3.019968e-01
3.149303e-01
3.274694e-01
3.433277e-01
3.510493e-01
3.202867e-01
3.075761e-01
2.956120e-01
2.841682e-01
2.729189e-01
2.617140e-01
2.504728e-01
2.392013e-01
2.277422e-01
2.157965e-01
2.040319e-01
1.904295e-01
4.990578e-01
4.996709e-01
4.968103e-01
4.984845e-01
4.995841e-01
4.933101e-01
4.960893e-01
4.981487e-01
4.995024e-01
4.843828e-01
4.887709e-01
4.924723e-01
4.955198e-01
4.978736e-01
4.994286e-01
4.672512e-01
4.770150e-01
4.828901e-01
4.876117e-01
4.916213e-01
4.949708e-01
4.975946e-01
4.993483e-01
4.704243e-01
4.761458e-01
4.815385e-01
4.864200e-01
4.907121e-01
4.943562e-01
4.972527e-01
4.992357e-01
4.563513e-01
4.622268e-01
4.681890e-01
4.742469e-01
4.799099e-01
4.850682e-01
4.896489e-01
4.935733e-01
4.967384e-01
4.990093e-01
4.995857e-01
4.438335e-01
4.518619e-01
4.589339e-01
4.656854e-01
4.720984e-01
4.780555e-01
4.834888e-01
4.883279e-01
4.924749e-01
4.957743e-01
4.979994e-01
4.994450e-01
4.207042e-01
4.311109e-01
4.402639e-01
4.483807e-01
4.559167e-01
4.630390e-01
4.697301e-01
4.759381e-01
4.816088e-01
4.866766e-01
4.910564e-01
4.946464e-01
4.974299e-01
4.993023e-01
3.921986e-01
4.066305e-01
4.180341e-01
4.280057e-01
4.368317e-01
4.450504e-01
3.397470e-01
3.260352e-01
3.135353e-01
3.021245e-01
2.909248e-01
2.797094e-01
2.684146e-01
2.570200e-01
2.454598e-01
2.336245e-01
2.215840e-01
2.089625e-01
1.963448e-01
4.528326e-01
4.601857e-01
4.670834e-01
4.734906e-01
4.793573e-01
4.846549e-01
4.893679e-01
4.934548e-01
4.968765e-01
4.991315e-01
1.861677e-01
1.994796e-01
2.131670e-01
2.272994e-01
2.419112e-01
2.569719e-01
2.724321e-01
2.882013e-01
3.041758e-01
3.202640e-01
3.364784e-01
3.527752e-01
3.690120e-01
3.853213e-01
4.010838e-01
4.160000e-01
4.298403e-01
4.432525e-01
4.568786e-01
4.662306e-01
4.749666e-01
4.845183e-01
4.912678e-01
4.963716e-01
3.789900e-01
3.944053e-01
4.050372e-01
4.155564e-01
4.245573e-01
4.332300e-01
4.415950e-01
4.495478e-01
4.570377e-01
4.640865e-01
4.706346e-01
4.766077e-01
4.821293e-01
4.872469e-01
4.917365e-01
4.965009e-01
4.986470e-01
1.868138e-01
2.007318e-01
2.150225e-01
2.297238e-01
2.448609e-01
2.604108e-01
2.763261e-01
2.925308e-01
3.089444e-01
3.254946e-01
3.421022e-01
3.586526e-01
3.750227e-01
3.910349e-01
4.064486e-01
4.211146e-01
4.349502e-01
4.479442e-01
4.595746e-01
4.698064e-01
4.789419e-01
4.869741e-01
4.933285e-01
4.979210e-01
1.875013e-01
2.020606e-01
2.169575e-01
2.322503e-01
2.479589e-01
2.640530e-01
2.804772e-01
2.971529e-01
3.139925e-01
3.308971e-01
3.477513e-01
3.644214e-01
3.807565e-01
3.965918e-01
4.117716e-01
4.261637e-01
4.396406e-01
4.520411e-01
4.632166e-01
4.731644e-01
4.818379e-01
4.891189e-01
4.947839e-01
4.985737e-01
1.882237e-01
2.034315e-01
2.189945e-01
2.349541e-01
2.512988e-01
2.679789e-01
2.849261e-01
3.020532e-01
3.192605e-01
3.589622e-01
3.443123e-01
3.308364e-01
3.199430e-01
3.090250e-01
2.979192e-01
2.866341e-01
2.751858e-01
2.635665e-01
2.517408e-01
2.396854e-01
2.272942e-01
2.145408e-01
2.007048e-01
1.906166e-01
3.364336e-01
3.534452e-01
3.701555e-01
3.864148e-01
4.020723e-01
4.169876e-01
4.310281e-01
4.440625e-01
4.559718e-01
4.666750e-01
4.761094e-01
4.841845e-01
4.907855e-01
4.957569e-01
4.989049e-01
1.888727e-01
2.048705e-01
2.212456e-01
2.379700e-01
2.550002e-01
2.722743e-01
2.897198e-01
3.072483e-01
3.247558e-01
3.421247e-01
3.592292e-01
3.759294e-01
3.920719e-01
4.075051e-01
4.220978e-01
4.357295e-01
4.482873e-01
4.596793e-01
4.698353e-01
4.786786e-01
4.861221e-01
4.920755e-01
4.964376e-01
4.991050e-01
1.897018e-01
2.066778e-01
2.239722e-01
2.415040e-01
2.592113e-01
2.770364e-01
2.949145e-01
3.127683e-01
3.304966e-01
3.479951e-01
3.651483e-01
3.818017e-01
3.977807e-01
4.129224e-01
4.271243e-01
4.402877e-01
4.523213e-01
4.631487e-01
4.727123e-01
4.809327e-01
4.877486e-01
4.931083e-01
4.969533e-01
4.992476e-01
1.910563e-01
2.091754e-01
2.274517e-01
2.457619e-01
2.640726e-01
2.823615e-01
3.005522e-01
3.186147e-01
3.364615e-01
3.540597e-01
3.712601e-01
3.878392e-01
4.036096e-01
4.183602e-01
4.320820e-01
4.446944e-01
4.561756e-01
4.664132e-01
4.753550e-01
4.829226e-01
4.891381e-01
4.939813e-01
4.973885e-01
4.993689e-01
1.929557e-01
2.126581e-01
2.319903e-01
2.508566e-01
2.697337e-01
2.884071e-01
3.066067e-01
3.246437e-01
3.424984e-01
3.604354e-01
3.776564e-01
3.941017e-01
4.097016e-01
4.238741e-01
4.369321e-01
4.488316e-01
4.599475e-01
4.695828e-01
4.777997e-01
4.846219e-01
4.903327e-01
4.947908e-01
3.775698e-01
3.628662e-01
3.463634e-01
3.374741e-01
3.271452e-01
3.162745e-01
3.050780e-01
2.936348e-01
2.819972e-01
2.701795e-01
2.581678e-01
2.459186e-01
2.334280e-01
2.208199e-01
2.092347e-01
1.965703e-01
4.978240e-01
4.994954e-01
1.971664e-01
2.189478e-01
2.370973e-01
2.567193e-01
2.766608e-01
2.957636e-01
3.127980e-01
3.285121e-01
3.491749e-01
3.675527e-01
3.843226e-01
4.004306e-01
4.168090e-01
4.298656e-01
4.408018e-01
4.524513e-01
4.642780e-01
4.730642e-01
4.796012e-01
4.859110e-01
4.913372e-01
4.957240e-01
4.984113e-01
4.995932e-01
4.995785e-01
4.993764e-01
4.981465e-01
4.996067e-01
4.989163e-01
4.974608e-01
4.955726e-01
4.993800e-01
4.981467e-01
4.965179e-01
4.943268e-01
4.917927e-01
4.989167e-01
4.973997e-01
4.953648e-01
4.928762e-01
4.899495e-01
4.867242e-01
4.994237e-01
4.977923e-01
4.963650e-01
4.940962e-01
4.912568e-01
4.879614e-01
4.842897e-01
4.803051e-01
4.726419e-01
4.992098e-01
4.975184e-01
4.952144e-01
4.926713e-01
4.895177e-01
4.858456e-01
4.817584e-01
4.773488e-01
4.640098e-01
4.995900e-01
4.987882e-01
4.969425e-01
4.943508e-01
4.912382e-01
4.877022e-01
4.836463e-01
4.791310e-01
4.742684e-01
4.691899e-01
4.544701e-01
4.993571e-01
4.980429e-01
4.961202e-01
4.933394e-01
4.898804e-01
4.858911e-01
4.814194e-01
4.764672e-01
4.711015e-01
4.654937e-01
4.598725e-01
4.989322e-01
4.973669e-01
4.951228e-01
4.921589e-01
4.884443e-01
4.840966e-01
4.792097e-01
4.738259e-01
4.679795e-01
4.617137e-01
4.554008e-01
4.493754e-01
4.434679e-01
4.304110e-01
4.995061e-01
4.980156e-01
4.965278e-01
4.941020e-01
4.908812e-01
4.869157e-01
4.822639e-01
4.770175e-01
4.712322e-01
4.649489e-01
4.582168e-01
4.507856e-01
4.439319e-01
4.378105e-01
3.821066e-01
3.952802e-01
4.993351e-01
4.979729e-01
4.957754e-01
4.930923e-01
4.896093e-01
4.853528e-01
4.803908e-01
4.748109e-01
4.686853e-01
4.620016e-01
4.548368e-01
4.474169e-01
4.373373e-01
4.313387e-01
4.260387e-01
4.128702e-01
1.732000e-01
1.732000e-01
1.732000e-01
1.732000e-01
1.732000e-01
1.732000e-01
1.732000e-01
1.732000e-01
1.732000e-01
1.732000e-01
1.732000e-01
1.732000e-01
1.732000e-01
1.732000e-01
1.732000e-01
1.732000e-01
1.732000e-01
1.732000e-01
1.732000e-01
1.732000e-01
1.732000e-01
1.732000e-01
1.732000e-01
1.732000e-01
1.732000e-01
1.732000e-01
1.732000e-01
1.732000e-01
1.732000e-01
1.732000e-01
1.732000e-01
1.732000e-01
1.732000e-01
1.732000e-01
1.732000e-01
1.732000e-01
1.732000e-01
1.732000e-01
1.732000e-01
1.732000e-01
1.732000e-01
1.732000e-01
1.732000e-01
1.732000e-01
1.732000e-01
1.732000e-01
1.732000e-01
1.732000e-01
1.732000e-01
1.732000e-01
1.732000e-01
1.732000e-01
1.732000e-01
1.732000e-01
1.732000e-01
1.732000e-01
1.732000e-01
1.732000e-01
1.732000e-01
1.732000e-01
1.732000e-01
1.732000e-01
1.732000e-01
1.732000e-01
1.732000e-01
1.732000e-01
1.732000e-01
1.732000e-01
1.732000e-01
1.732000e-01
1.732000e-01
1.732000e-01
1.732000e-01
1.732000e-01
1.732000e-01
1.732000e-01
1.732000e-01
1.732000e-01
1.732000e-01
1.732000e-01
1.732000e-01
1.732000e-01
1.732000e-01
1.732000e-01
1.732000e-01
1.732000e-01
1.732000e-01
1.732000e-01
1.732000e-01
1.732000e-01
1.732000e-01
1.732000e-01
1.732000e-01
1.732000e-01
1.732000e-01
1.732000e-01
1.732000e-01
1.732000e-01
1.732000e-01
1.732000e-01
1.732000e-01
1.732000e-01
1.732000e-01
1.732000e-01
1.732000e-01
1.732000e-01
1.732000e-01
1.732000e-01
1.732000e-01
1.732000e-01
1.732000e-01
1.732000e-01
1.732000e-01
1.732000e-01
1.732000e-01
1.732000e-01
1.732000e-01
1.732000e-01
1.732000e-01
1.732000e-01
1.732000e-01
1.732000e-01
1.732000e-01
1.732000e-01
1.732000e-01
1.732000e-01
1.732000e-01
1.732000e-01
1.732000e-01
1.732000e-01
1.732000e-01
1.732000e-01
1.732000e-01
1.732000e-01
1.732000e-01
1.732000e-01
1.732000e-01
1.732000e-01
1.732000e-01
1.732000e-01
1.732000e-01
1.732000e-01
1.732000e-01
1.732000e-01
1.732000e-01
1.732000e-01
1.732000e-01
1.732000e-01
1.732000e-01
1.732000e-01
1.732000e-01
1.732000e-01
1.732000e-01
1.732000e-01
1.732000e-01
1.732000e-01
1.732000e-01
1.732000e-01
1.732000e-01
1.732000e-01
1.732000e-01
1.732000e-01
1.732000e-01
1.732000e-01
1.732000e-01
1.732000e-01
1.732000e-01
1.732000e-01
1.732000e-01
1.732000e-01
1.732000e-01
1.732000e-01
1.732000e-01
1.732000e-01
1.732000e-01
1.732000e-01
1.732000e-01
1.732000e-01
1.732000e-01
1.732000e-01
1.732000e-01
1.732000e-01
1.732000e-01
1.732000e-01
1.732000e-01
1.732000e-01
1.732000e-01
1.732000e-01
1.732000e-01
1.732000e-01
1.732000e-01
1.732000e-01
1.732000e-01
1.732000e-01
1.732000e-01
1.732000e-01
1.732000e-01
1.732000e-01
1.732000e-01
1.732000e-01
1.732000e-01
1.732000e-01
1.732000e-01
1.732000e-01
1.732000e-01
1.732000e-01
1.732000e-01
1.732000e-01
1.732000e-01
1.732000e-01
1.732000e-01
1.732000e-01
1.732000e-01
1.732000e-01
1.732000e-01
1.732000e-01
1.732000e-01
1.732000e-01
1.732000e-01
1.732000e-01
1.732000e-01
1.732000e-01
1.732000e-01
1.732000e-01
1.732000e-01
1.732000e-01
1.732000e-01
1.732000e-01
1.732000e-01
1.732000e-01
1.732000e-01
1.732000e-01
1.732000e-01
1.732000e-01
1.732000e-01
1.732000e-01
1.732000e-01
1.732000e-01
1.732000e-01
1.732000e-01
1.732000e-01
1.732000e-01
1.732000e-01
1.732000e-01
1.732000e-01
1.732000e-01
1.732000e-01
1.732000e-01
1.732000e-01
1.732000e-01
1.732000e-01
1.732000e-01
1.732000e-01
1.732000e-01
1.732000e-01
1.732000e-01
1.732000e-01
1.732000e-01
1.732000e-01
1.732000e-01
1.732000e-01
1.732000e-01
1.732000e-01
1.732000e-01
1.732000e-01
1.732000e-01
1.732000e-01
1.732000e-01
1.732000e-01
1.732000e-01
1.732000e-01
1.732000e-01
1.732000e-01
1.732000e-01
1.732000e-01
1.732000e-01
1.732000e-01
1.732000e-01
1.732000e-01
1.732000e-01
1.732000e-01
1.732000e-01
1.732000e-01
1.732000e-01
1.732000e-01
1.732000e-01
1.732000e-01
1.732000e-01
1.732000e-01
1.732000e-01
1.732000e-01
1.732000e-01
1.732000e-01
1.732000e-01
1.732000e-01
1.732000e-01
1.732000e-01
1.732000e-01
1.732000e-01
1.732000e-01
1.732000e-01
1.732000e-01
1.732000e-01
1.732000e-01
1.732000e-01
1.732000e-01
1.732000e-01
1.732000e-01
1.732000e-01
1.732000e-01
1.732000e-01
1.732000e-01
1.732000e-01
1.732000e-01
1.732000e-01
1.732000e-01
1.732000e-01
1.732000e-01
1.732000e-01
1.732000e-01
1.732000e-01
1.732000e-01
1.732000e-01
1.732000e-01
1.732000e-01
1.732000e-01
1.732000e-01
1.732000e-01
1.732000e-01
1.732000e-01
1.732000e-01
1.732000e-01
1.732000e-01
1.732000e-01
1.732000e-01
1.732000e-01
1.732000e-01
1.732000e-01
1.732000e-01
1.732000e-01
1.732000e-01
1.732000e-01
1.732000e-01
1.732000e-01
1.732000e-01
1.732000e-01
1.732000e-01
1.732000e-01
1.732000e-01
1.732000e-01
1.732000e-01
1.732000e-01
1.732000e-01
1.732000e-01
1.732000e-01
1.732000e-01
1.732000e-01
1.732000e-01
1.732000e-01
1.732000e-01
1.732000e-01
1.732000e-01
1.732000e-01
1.732000e-01
1.732000e-01
1.732000e-01
1.732000e-01
1.732000e-01
1.732000e-01
1.732000e-01
3.232000e-01
3.232000e-01
3.232000e-01
3.232000e-01
3.232000e-01
3.232000e-01
3.232000e-01
3.232000e-01
3.232000e-01
3.232000e-01
3.232000e-01
3.232000e-01
3.232000e-01
3.232000e-01
3.232000e-01
3.232000e-01
3.232000e-01
3.232000e-01
3.232000e-01
3.232000e-01
3.232000e-01
3.232000e-01
3.232000e-01
3.232000e-01
3.232000e-01
3.232000e-01
3.232000e-01
3.232000e-01
3.232000e-01
3.232000e-01
3.232000e-01
3.232000e-01
3.232000e-01
2.782229e-01
2.718647e-01
2.885322e-01
2.765868e-01
2.812898e-01
2.686032e-01
2.675164e-01
2.623295e-01
2.579984e-01
2.763563e-01
2.693295e-01
2.634331e-01
2.735531e-01
2.616465e-01
2.700897e-01
1.936887e-01
3.215157e-01
3.188309e-01
3.129254e-01
3.155367e-01
3.135944e-01
3.084174e-01
3.137838e-01
3.104002e-01
3.069347e-01
3.072986e-01
3.031480e-01
2.988070e-01
3.031344e-01
2.988059e-01
2.945083e-01
2.895302e-01
3.189084e-01
2.983239e-01
2.936359e-01
2.888615e-01
2.859411e-01
2.793026e-01
2.740199e-01
2.792103e-01
2.677433e-01
2.938289e-01
2.842860e-01
3.219009e-01
2.731810e-01
2.599102e-01
2.677794e-01
2.619777e-01
2.559859e-01
2.511630e-01
2.485417e-01
2.539410e-01
2.479696e-01
2.431189e-01
2.393474e-01
2.453044e-01
2.381701e-01
2.339726e-01
2.299449e-01
2.271534e-01
2.238340e-01
2.201437e-01
2.130899e-01
2.098106e-01
1.978908e-01
2.379468e-01
2.225365e-01
2.098356e-01
1.995202e-01
1.874856e-01
3.127922e-01
3.083261e-01
3.225093e-01
3.201104e-01
3.214619e-01
3.163574e-01
3.182077e-01
3.138735e-01
3.088490e-01
3.146982e-01
3.182391e-01
3.214082e-01
2.159818e-01
2.040840e-01
1.886851e-01
2.151349e-01
1.996502e-01
1.838581e-01
3.124274e-01
3.079565e-01
3.224038e-01
3.198885e-01
3.212806e-01
3.161001e-01
3.179220e-01
3.134979e-01
3.084130e-01
2.151052e-01
2.035651e-01
1.890419e-01
2.158478e-01
2.000815e-01
1.839675e-01
3.223225e-01
3.196636e-01
3.210237e-01
3.157664e-01
3.174953e-01
3.130962e-01
3.082875e-01
2.165046e-01
2.043494e-01
1.889661e-01
3.220880e-01
3.186790e-01
3.152839e-01
3.127447e-01
3.096980e-01
3.083709e-01
3.007500e-01
2.157967e-01
2.013458e-01
1.848805e-01
2.409928e-01
2.276138e-01
2.133499e-01
1.966184e-01
1.837587e-01
3.130204e-01
3.086945e-01
3.224327e-01
3.199395e-01
3.212927e-01
3.160882e-01
3.179626e-01
3.134115e-01
3.083439e-01
2.180405e-01
2.057845e-01
1.900950e-01
2.155808e-01
2.005761e-01
3.001048e-01
3.076055e-01
3.126967e-01
3.166993e-01
1.843264e-01
3.223454e-01
3.198875e-01
3.163946e-01
2.177241e-01
2.055140e-01
1.890762e-01
3.105558e-01
3.056554e-01
3.220662e-01
3.191269e-01
3.207401e-01
3.149661e-01
3.167124e-01
3.095259e-01
3.113627e-01
3.027603e-01
3.055547e-01
2.365205e-01
2.240245e-01
2.113350e-01
1.991212e-01
1.859831e-01
2.114755e-01
1.971126e-01
1.828957e-01
3.220315e-01
3.188350e-01
3.202673e-01
3.143564e-01
3.163573e-01
3.117282e-01
3.065986e-01
2.887405e-01
2.133635e-01
2.024927e-01
1.877522e-01
3.225617e-01
3.193211e-01
3.149484e-01
3.118385e-01
3.086350e-01
3.071664e-01
2.989431e-01
2.144368e-01
1.997572e-01
1.841707e-01
2.387955e-01
2.257829e-01
2.119894e-01
1.957406e-01
1.833012e-01
3.114821e-01
3.067983e-01
3.221887e-01
3.193809e-01
3.209593e-01
3.153103e-01
3.172056e-01
3.121914e-01
3.067484e-01
2.163203e-01
2.044155e-01
1.892965e-01
2.132055e-01
1.989802e-01
1.836215e-01
3.117438e-01
3.071511e-01
3.221976e-01
2.797447e-01
3.193102e-01
3.209371e-01
3.151221e-01
3.172722e-01
3.125850e-01
3.072801e-01
2.143357e-01
2.024845e-01
1.878543e-01
2.120787e-01
1.980902e-01
1.832122e-01
3.221429e-01
3.191390e-01
3.205306e-01
3.149680e-01
3.163844e-01
3.109603e-01
3.054995e-01
2.130809e-01
2.020293e-01
1.873187e-01
3.219054e-01
3.195802e-01
3.165035e-01
3.099971e-01
3.108331e-01
3.050648e-01
3.013065e-01
2.126438e-01
1.982149e-01
1.833030e-01
2.419695e-01
2.291850e-01
2.116521e-01
1.985635e-01
1.864926e-01
3.220310e-01
3.185600e-01
3.194041e-01
2.978523e-01
3.051138e-01
3.106403e-01
3.148145e-01
3.175022e-01
3.208513e-01
3.137094e-01
3.150456e-01
3.096760e-01
3.041304e-01
2.125034e-01
2.013721e-01
1.874976e-01
3.220352e-01
3.174111e-01
3.102541e-01
3.051438e-01
2.986579e-01
2.127610e-01
1.983329e-01
1.832784e-01
1.862206e-01
3.151662e-01
3.125358e-01
3.080895e-01
3.076141e-01
3.003889e-01
2.987918e-01
3.009722e-01
2.929791e-01
2.840779e-01
2.874467e-01
2.913872e-01
2.936522e-01
2.755586e-01
2.804181e-01
2.847133e-01
2.833660e-01
2.557228e-01
2.462673e-01
2.391114e-01
2.318216e-01
2.235467e-01
2.137486e-01
2.034896e-01
1.962800e-01
1.869797e-01
2.024769e-01
2.075861e-01
2.167906e-01
2.176704e-01
2.326831e-01
2.290742e-01
2.262049e-01
2.424622e-01
2.383912e-01
2.349946e-01
2.428768e-01
2.554928e-01
2.506447e-01
2.464633e-01
2.673207e-01
2.628066e-01
2.577345e-01
2.537499e-01
2.504733e-01
2.765081e-01
2.584061e-01
2.664618e-01
2.701366e-01
3.195952e-01
1.856869e-01
3.217487e-01
3.215061e-01
3.199607e-01
3.173736e-01
3.225147e-01
3.119155e-01
3.094318e-01
3.060975e-01
2.808646e-01
2.874258e-01
2.956712e-01
3.029449e-01
3.088421e-01
3.134147e-01
3.170128e-01
3.203364e-01
3.225655e-01
3.210873e-01
3.185341e-01
3.146875e-01
2.937574e-01
3.222996e-01
3.203598e-01
3.175799e-01
3.135157e-01
3.087882e-01
3.042645e-01
2.996296e-01
3.227898e-01
3.217598e-01
3.190225e-01
3.169643e-01
3.118828e-01
3.067448e-01
3.020671e-01
2.982453e-01
2.907450e-01
2.838870e-01
1.907323e-01
1.826300e-01
2.153533e-01
2.072095e-01
1.966078e-01
1.869977e-01
2.175276e-01
2.043669e-01
2.503971e-01
2.448437e-01
2.355356e-01
2.228592e-01
2.120901e-01
2.019351e-01
1.920606e-01
1.839745e-01
2.354436e-01
2.257682e-01
3.107920e-01
3.040205e-01
2.966417e-01
2.874078e-01
2.766665e-01
2.644961e-01
2.515718e-01
3.224465e-01
3.206615e-01
3.166605e-01
3.106244e-01
3.030642e-01
2.934068e-01
2.833186e-01
2.722588e-01
2.607671e-01
2.508912e-01
2.394229e-01
2.290329e-01
2.173115e-01
2.023608e-01
1.891807e-01
2.629780e-01
2.558353e-01
2.470591e-01
2.366673e-01
2.262882e-01
2.162835e-01
2.064015e-01
1.968465e-01
1.872310e-01
1.833878e-01
2.988982e-01
2.913872e-01
2.814496e-01
2.696492e-01
2.047374e-01
1.993284e-01
1.875623e-01
2.544564e-01
2.411444e-01
2.274224e-01
2.131531e-01
1.989463e-01
1.869811e-01
3.104713e-01
3.036546e-01
2.960043e-01
2.862481e-01
2.754247e-01
2.637189e-01
2.513083e-01
2.379790e-01
2.254992e-01
2.122737e-01
3.222482e-01
3.204206e-01
3.164606e-01
3.110715e-01
3.032180e-01
2.917399e-01
2.810871e-01
2.696257e-01
2.576978e-01
2.465377e-01
3.222498e-01
3.193754e-01
3.153716e-01