VARIABLES = "X" "Y" "Z" "FREF"
ZONE T="instant 024"
Nodes=3151, Elements=6298
ZONETYPE=FETriangle
DATAPACKING=BLOCK
VARLOCATION = ([1-3]=NODAL, [4]=CELLCENTERED)
5.000000e-01
1.030373e-01
1.222437e-01
1.409982e-01
1.593225e-01
1.807923e-01
2.041743e-01
2.290977e-01
2.554109e-01
2.825479e-01
3.097831e-01
3.359186e-01
3.605744e-01
3.841675e-01
4.056273e-01
4.240263e-01
4.391407e-01
4.505844e-01
4.608295e-01
4.710927e-01
4.799446e-01
4.870144e-01
4.922879e-01
4.961082e-01
4.985122e-01
4.997166e-01
8.740000e-02
8.740000e-02
8.740000e-02
8.740000e-02
8.740000e-02
8.740000e-02
8.740000e-02
8.740000e-02
8.740000e-02
8.740000e-02
8.740000e-02
8.740000e-02
2.368426e-01
2.354260e-01
2.324693e-01
2.279646e-01
2.226477e-01
2.179898e-01
2.120714e-01
2.045129e-01
1.964860e-01
1.885546e-01
1.800334e-01
1.701756e-01
1.615267e-01
1.529694e-01
1.444765e-01
1.339495e-01
1.237828e-01
1.158989e-01
1.068660e-01
9.721008e-02
2.374000e-01
4.777981e-01
4.485597e-01
4.239624e-01
3.989859e-01
3.683069e-01
3.387874e-01
3.142723e-01
2.917010e-01
2.698484e-01
2.517060e-01
3.007011e-01
1.298713e-01
1.184003e-01
3.136555e-01
2.924412e-01
1.332455e-01
1.445149e-01
1.250335e-01
1.486261e-01
1.067487e-01
1.508796e-01
1.359448e-01
1.555969e-01
1.697452e-01
4.799469e-01
1.858601e-01
2.064875e-01
1.775690e-01
1.914877e-01
2.353765e-01
2.536130e-01
2.897572e-01
2.692253e-01
2.759840e-01
3.032292e-01
3.274300e-01
3.027740e-01
4.708121e-01
4.558283e-01
3.174050e-01
3.438567e-01
3.375114e-01
3.622770e-01
3.619628e-01
3.740048e-01
2.513969e-01
2.837835e-01
2.675916e-01
2.467417e-01
1.262449e-01
1.110154e-01
1.033487e-01
1.047705e-01
1.046814e-01
1.219340e-01
1.398321e-01
1.053126e-01
1.228360e-01
1.412079e-01
1.605889e-01
9.723716e-02
1.090355e-01
1.246171e-01
1.427175e-01
4.757492e-01
1.616724e-01
1.824534e-01
1.829805e-01
2.053621e-01
1.855176e-01
2.044883e-01
2.288209e-01
1.052723e-01
1.238882e-01
1.432779e-01
1.639166e-01
1.554625e-01
1.536266e-01
1.649822e-01
1.766077e-01
2.018622e-01
2.209764e-01
2.340131e-01
2.525408e-01
1.029708e-01
1.206084e-01
1.403524e-01
1.628504e-01
1.825932e-01
2.004978e-01
2.223581e-01
2.021107e-01
2.181728e-01
2.245283e-01
2.416602e-01
2.600884e-01
2.827874e-01
1.725630e-01
1.886012e-01
2.061370e-01
2.430867e-01
4.680101e-01
4.526593e-01
4.394128e-01
4.237652e-01
2.636804e-01
2.850192e-01
3.092295e-01
1.790547e-01
2.241114e-01
2.438126e-01
2.660662e-01
2.863100e-01
3.086353e-01
3.336192e-01
1.951743e-01
2.133568e-01
2.345232e-01
2.461735e-01
2.674426e-01
2.928211e-01
4.598653e-01
4.418710e-01
4.256829e-01
4.096164e-01
3.911195e-01
3.078650e-01
3.303161e-01
3.561333e-01
2.630203e-01
2.886169e-01
3.227172e-01
3.494132e-01
3.767874e-01
1.990257e-01
2.164114e-01
2.362744e-01
2.592801e-01
3.147989e-01
3.417943e-01
3.686375e-01
3.959637e-01
2.846467e-01
3.102517e-01
3.353811e-01
3.614781e-01
3.871929e-01
4.135959e-01
3.921235e-01
4.118119e-01
2.169822e-01
2.356189e-01
2.569549e-01
2.812046e-01
3.077845e-01
3.334951e-01
3.548219e-01
3.817874e-01
4.047323e-01
4.304259e-01
3.252984e-01
3.383518e-01
4.508778e-01
4.319157e-01
4.145384e-01
3.979866e-01
3.812150e-01
3.642415e-01
3.471403e-01
3.540449e-01
3.708258e-01
3.873230e-01
4.034257e-01
4.217067e-01
4.410069e-01
8.740000e-02
4.996073e-01
4.976353e-01
4.941581e-01
4.891297e-01
4.811970e-01
4.718098e-01
4.599739e-01
4.455670e-01
4.271254e-01
4.070054e-01
3.881985e-01
3.672228e-01
3.434391e-01
3.186318e-01
2.972994e-01
2.788705e-01
2.600564e-01
2.384826e-01
2.154941e-01
1.929575e-01
1.713639e-01
1.509029e-01
1.320582e-01
1.149986e-01
9.999777e-02
5.000000e-01
2.516376e-01
2.703686e-01
2.933145e-01
3.197870e-01
3.456074e-01
3.709299e-01
3.965989e-01
4.253593e-01
4.558146e-01
4.812566e-01
2.374000e-01
9.624643e-02
1.051072e-01
1.156257e-01
1.271434e-01
1.377050e-01
1.477103e-01
1.579522e-01
1.679899e-01
1.770165e-01
1.841386e-01
1.927649e-01
2.006648e-01
2.070821e-01
2.124533e-01
2.174638e-01
2.235597e-01
2.282746e-01
2.310394e-01
2.334205e-01
2.355379e-01
2.369591e-01
8.740000e-02
8.740000e-02
8.740000e-02
8.740000e-02
8.740000e-02
8.740000e-02
8.740000e-02
8.740000e-02
8.740000e-02
8.740000e-02
8.740000e-02
2.948838e-01
3.392737e-01
1.273952e-01
1.576750e-01
1.517459e-01
2.519082e-01
2.619655e-01
2.767178e-01
2.790398e-01
3.048414e-01
3.057106e-01
3.160635e-01
2.973637e-01
3.842874e-01
1.025213e-01
3.577898e-01
3.315654e-01
3.668117e-01
3.119665e-01
3.532139e-01
3.349743e-01
3.771040e-01
3.595768e-01
1.073089e-01
1.491024e-01
1.295422e-01
1.192778e-01
1.066247e-01
1.477847e-01
1.789992e-01
1.459528e-01
1.833754e-01
1.704617e-01
2.004457e-01
1.858775e-01
2.157085e-01
2.343370e-01
1.095003e-01
2.534646e-01
1.053363e-01
1.143160e-01
1.287557e-01
2.435343e-01
2.612379e-01
2.784274e-01
4.722732e-01
4.430331e-01
4.589849e-01
4.712530e-01
4.024605e-01
4.159738e-01
4.293563e-01
4.433063e-01
1.368556e-01
1.235216e-01
1.051098e-01
4.605280e-01
4.003931e-01
4.134038e-01
4.277195e-01
4.520106e-01
3.830468e-01
3.887187e-01
4.266507e-01
4.401217e-01
2.454417e-01
2.567109e-01
2.712707e-01
3.668562e-01
3.874016e-01
4.185536e-01
3.315426e-01
3.607566e-01
3.711730e-01
3.841103e-01
3.953664e-01
4.030629e-01
4.099038e-01
2.290186e-01
2.882999e-01
3.126546e-01
3.434386e-01
3.604271e-01
3.826049e-01
4.060461e-01
2.347646e-01
2.457767e-01
2.600318e-01
3.319168e-01
3.524396e-01
1.561165e-01
1.423815e-01
3.716547e-01
3.904889e-01
2.133874e-01
2.781328e-01
2.993897e-01
3.268572e-01
3.411886e-01
3.573963e-01
3.731217e-01
2.204322e-01
2.314700e-01
2.455192e-01
3.114822e-01
3.271881e-01
3.408789e-01
3.543373e-01
2.614853e-01
1.758764e-01
1.592487e-01
1.412551e-01
1.233834e-01
1.058809e-01
2.772498e-01
3.012248e-01
3.109405e-01
3.225442e-01
3.338811e-01
1.936689e-01
2.022904e-01
2.147795e-01
2.284648e-01
2.817795e-01
2.923638e-01
3.032160e-01
3.123670e-01
2.406467e-01
2.514669e-01
2.625192e-01
2.745014e-01
2.840191e-01
2.903682e-01
1.072357e-01
1.276127e-01
1.537882e-01
1.757817e-01
1.977359e-01
2.198139e-01
2.414762e-01
1.714675e-01
1.801261e-01
2.012807e-01
2.084387e-01
2.188719e-01
2.318413e-01
2.455681e-01
2.598177e-01
2.627743e-01
2.666570e-01
1.969082e-01
1.790111e-01
1.615453e-01
1.444649e-01
1.267826e-01
1.071176e-01
2.034009e-01
2.209479e-01
2.411275e-01
1.676860e-01
1.830386e-01
1.999239e-01
2.188116e-01
5.000000e-01
5.000000e-01
5.000000e-01
5.000000e-01
5.000000e-01
5.000000e-01
5.000000e-01
5.000000e-01
5.000000e-01
5.000000e-01
5.000000e-01
5.000000e-01
5.000000e-01
5.000000e-01
5.000000e-01
5.000000e-01
5.000000e-01
5.000000e-01
5.000000e-01
5.000000e-01
5.000000e-01
5.000000e-01
5.000000e-01
5.000000e-01
5.000000e-01
5.000000e-01
5.000000e-01
5.000000e-01
5.000000e-01
5.000000e-01
5.000000e-01
5.000000e-01
5.000000e-01
8.740000e-02
8.740000e-02
8.740000e-02
8.740000e-02
8.740000e-02
8.740000e-02
8.740000e-02
8.740000e-02
8.740000e-02
8.740000e-02
8.740000e-02
8.740000e-02
8.740000e-02
8.740000e-02
8.740000e-02
8.740000e-02
8.740000e-02
8.740000e-02
8.740000e-02
8.740000e-02
8.740000e-02
8.740000e-02
8.740000e-02
8.740000e-02
8.740000e-02
8.740000e-02
8.740000e-02
8.740000e-02
8.740000e-02
8.740000e-02
8.740000e-02
8.740000e-02
8.740000e-02
3.344994e-01
3.492975e-01
3.428172e-01
3.569285e-01
3.713981e-01
3.871933e-01
3.617311e-01
3.726840e-01
2.844859e-01
2.979481e-01
3.091756e-01
3.103904e-01
3.209364e-01
3.289497e-01
3.369910e-01
3.693320e-01
3.468874e-01
3.345116e-01
3.565461e-01
3.780199e-01
3.231894e-01
3.234251e-01
1.093188e-01
1.004045e-01
3.427050e-01
3.644983e-01
3.858565e-01
3.631646e-01
3.773609e-01
3.914467e-01
3.830134e-01
3.958642e-01
4.009152e-01
4.250294e-01
3.703659e-01
3.860490e-01
3.618797e-01
3.938161e-01
3.729471e-01
3.513118e-01
4.008989e-01
3.806054e-01
3.620985e-01
3.428652e-01
3.986795e-01
4.138971e-01
4.100315e-01
3.943555e-01
3.818840e-01
1.283393e-01
1.164806e-01
1.035392e-01
3.345221e-01
3.487924e-01
3.608830e-01
3.238203e-01
3.374341e-01
3.128175e-01
1.020517e-01
1.134097e-01
1.165987e-01
1.289578e-01
1.331114e-01
1.433357e-01
1.470902e-01
1.515625e-01
1.522382e-01
1.609012e-01
1.665899e-01
1.717247e-01
1.727694e-01
1.810002e-01
1.874638e-01
1.931444e-01
1.859373e-01
1.948664e-01
2.027258e-01
2.094593e-01
2.154611e-01
2.007530e-01
2.093342e-01
2.177899e-01
2.254268e-01
2.321675e-01
2.382650e-01
2.147345e-01
1.478016e-01
1.350423e-01
1.220957e-01
1.093905e-01
1.015475e-01
2.240121e-01
2.329102e-01
2.411867e-01
2.486119e-01
2.551296e-01
2.610952e-01
2.376626e-01
2.476936e-01
2.566959e-01
2.647706e-01
2.719338e-01
2.778408e-01
2.834415e-01
2.508775e-01
2.617175e-01
2.718338e-01
2.804831e-01
2.882558e-01
2.953554e-01
2.994918e-01
3.047733e-01
2.632565e-01
2.747359e-01
2.859660e-01
2.964253e-01
3.035420e-01
3.113989e-01
3.205601e-01
3.178126e-01
3.257141e-01
3.421555e-01
3.966980e-01
3.147999e-01
3.346071e-01
3.570714e-01
1.685043e-01
1.553176e-01
1.420070e-01
1.292443e-01
1.183460e-01
1.077600e-01
3.797529e-01
3.012846e-01
3.231396e-01
3.465102e-01
3.698307e-01
3.893340e-01
4.062768e-01
3.463630e-01
3.599190e-01
3.664306e-01
3.747742e-01
3.817426e-01
3.900822e-01
3.986277e-01
4.073060e-01
4.082987e-01
4.123716e-01
4.168169e-01
4.198164e-01
4.232307e-01
4.271506e-01
3.894839e-01
4.005424e-01
4.093656e-01
4.179315e-01
4.262758e-01
4.326861e-01
4.367716e-01
4.054261e-01
4.104162e-01
4.183295e-01
4.277227e-01
4.353143e-01
4.408938e-01
4.454774e-01
4.219400e-01
4.371328e-01
4.352103e-01
4.462932e-01
4.493368e-01
4.535051e-01
4.576302e-01
4.610861e-01
4.353881e-01
4.520465e-01
4.617046e-01
4.676709e-01
4.482209e-01
4.622265e-01
4.683582e-01
4.734007e-01
4.693232e-01
4.793178e-01
1.908901e-01
1.771233e-01
1.632714e-01
1.498273e-01
1.372750e-01
1.251087e-01
1.115888e-01
1.025834e-01
4.761717e-01
4.848085e-01
4.787861e-01
4.858707e-01
4.931736e-01
4.977772e-01
4.949217e-01
4.911365e-01
4.907090e-01
4.865586e-01
4.849146e-01
4.856164e-01
4.777399e-01
4.785494e-01
4.796455e-01
4.810406e-01
4.693146e-01
4.699504e-01
4.711483e-01
4.727362e-01
4.746106e-01
4.597253e-01
4.610073e-01
4.628052e-01
4.649745e-01
4.673774e-01
4.565252e-01
4.594773e-01
4.475318e-01
4.491265e-01
4.511629e-01
4.536843e-01
4.337267e-01
4.354723e-01
4.376929e-01
4.405980e-01
4.440443e-01
4.476112e-01
4.509875e-01
4.189738e-01
4.202126e-01
4.222890e-01
4.254687e-01
4.296582e-01
4.343821e-01
4.383816e-01
4.416721e-01
3.859634e-01
3.865542e-01
4.036286e-01
4.049453e-01
4.078587e-01
4.129854e-01
4.189301e-01
4.258935e-01
4.271901e-01
4.317048e-01
3.831654e-01
3.989694e-01
3.712270e-01
1.417418e-01
1.711507e-01
1.535319e-01
1.764734e-01
1.669950e-01
2.003071e-01
1.923519e-01
1.822619e-01
2.319118e-01
2.187393e-01
2.147281e-01
2.002168e-01
1.858008e-01
1.717084e-01
1.580891e-01
1.448987e-01
1.318193e-01
1.201232e-01
1.088032e-01
2.080799e-01
1.976683e-01
2.596580e-01
2.468507e-01
2.347084e-01
2.235852e-01
2.130132e-01
2.747158e-01
2.618615e-01
2.499938e-01
2.388743e-01
2.282667e-01
3.020480e-01
2.887004e-01
2.764143e-01
2.649310e-01
2.539998e-01
2.434295e-01
3.278565e-01
3.146737e-01
3.022606e-01
2.906883e-01
2.797020e-01
2.690209e-01
2.584838e-01
3.510726e-01
3.395514e-01
3.270707e-01
3.156296e-01
3.048926e-01
2.944567e-01
2.839498e-01
2.733475e-01
3.697648e-01
3.651559e-01
3.504102e-01
3.393289e-01
3.289955e-01
3.193218e-01
3.092865e-01
2.986479e-01
2.878388e-01
4.231411e-01
4.095329e-01
3.925208e-01
3.730112e-01
3.504901e-01
3.262472e-01
3.016843e-01
4.048046e-01
3.865965e-01
3.652990e-01
3.389173e-01
3.144299e-01
1.026610e-01
1.010201e-01
1.040476e-01
1.194084e-01
1.144567e-01
1.242578e-01
1.378493e-01
1.025346e-01
1.165547e-01
1.303553e-01
1.433468e-01
1.575612e-01
1.040302e-01
1.191186e-01
1.339674e-01
1.486373e-01
1.634533e-01
1.785739e-01
2.397023e-01
2.243375e-01
2.093443e-01
1.947235e-01
1.804504e-01
1.664823e-01
1.527854e-01
1.396752e-01
1.268234e-01
1.129155e-01
1.027450e-01
9.982515e-02
1.083969e-01
1.223658e-01
1.375469e-01
1.530385e-01
1.687996e-01
1.847689e-01
2.007185e-01
9.856141e-02
1.025550e-01
1.152554e-01
1.272439e-01
1.416249e-01
1.572709e-01
1.735801e-01
1.902048e-01
2.070993e-01
2.239952e-01
1.067056e-01
1.194106e-01
1.327231e-01
1.463918e-01
1.616369e-01
1.780562e-01
1.950690e-01
2.124058e-01
2.301172e-01
2.489660e-01
2.691378e-01
1.002243e-01
1.120453e-01
1.238710e-01
1.375455e-01
1.516157e-01
1.661849e-01
1.822810e-01
1.995110e-01
2.171038e-01
2.348889e-01
2.528652e-01
2.710355e-01
2.868771e-01
1.010520e-01
1.145968e-01
1.271107e-01
1.417747e-01
1.570832e-01
1.716427e-01
1.860670e-01
2.033543e-01
2.213997e-01
2.392903e-01
2.572930e-01
2.750607e-01
2.927377e-01
3.068213e-01
9.462608e-02
1.027773e-01
1.156626e-01
1.313142e-01
1.427983e-01
1.620268e-01
1.781740e-01
1.924401e-01
2.046200e-01
2.256437e-01
2.432391e-01
2.614207e-01
2.795142e-01
2.963924e-01
3.167769e-01
3.264920e-01
2.653931e-01
2.490661e-01
2.335458e-01
2.185734e-01
2.039010e-01
1.894229e-01
1.751333e-01
1.610882e-01
1.472706e-01
1.334742e-01
1.204356e-01
1.059902e-01
4.990292e-01
4.996633e-01
4.967450e-01
4.984465e-01
4.995761e-01
4.931754e-01
4.960335e-01
4.981325e-01
4.995022e-01
4.838880e-01
4.885532e-01
4.924073e-01
4.955180e-01
4.978908e-01
4.994386e-01
4.658946e-01
4.762706e-01
4.826128e-01
4.875487e-01
4.916599e-01
4.950405e-01
4.976496e-01
4.993682e-01
4.696824e-01
4.757945e-01
4.814713e-01
4.865136e-01
4.908684e-01
4.945043e-01
4.973482e-01
4.992664e-01
4.543446e-01
4.610921e-01
4.676508e-01
4.741214e-01
4.800395e-01
4.853216e-01
4.899254e-01
4.938024e-01
4.968785e-01
4.990484e-01
4.995981e-01
4.409659e-01
4.501585e-01
4.580459e-01
4.653869e-01
4.721923e-01
4.783713e-01
4.838909e-01
4.887141e-01
4.927760e-01
4.959540e-01
4.980441e-01
4.994519e-01
4.148899e-01
4.270234e-01
4.377009e-01
4.469179e-01
4.552637e-01
4.629579e-01
4.700112e-01
4.764070e-01
4.821265e-01
4.871370e-01
4.913870e-01
4.948140e-01
4.974850e-01
4.993129e-01
3.806791e-01
3.984112e-01
4.124707e-01
4.242566e-01
4.344788e-01
4.437794e-01
2.913827e-01
2.738600e-01
2.578448e-01
2.428418e-01
2.280752e-01
2.133498e-01
1.986711e-01
1.840803e-01
1.695895e-01
1.551714e-01
1.410574e-01
1.268216e-01
1.131144e-01
4.523597e-01
4.602582e-01
4.674879e-01
4.740527e-01
4.799349e-01
4.851418e-01
4.897054e-01
4.936390e-01
4.969395e-01
4.991528e-01
1.023461e-01
1.184282e-01
1.361761e-01
1.555144e-01
1.763861e-01
1.983486e-01
2.210346e-01
2.440450e-01
2.669737e-01
2.894789e-01
3.114649e-01
3.329522e-01
3.538074e-01
3.742476e-01
3.933846e-01
4.108217e-01
4.265578e-01
4.414201e-01
4.562249e-01
4.659477e-01
4.750853e-01
4.848477e-01
4.915363e-01
4.965897e-01
3.647234e-01
3.843488e-01
3.975913e-01
4.102590e-01
4.209247e-01
4.309831e-01
4.404263e-01
4.491529e-01
4.571580e-01
4.645188e-01
4.712050e-01
4.771711e-01
4.826008e-01
4.876093e-01
4.919719e-01
4.965749e-01
4.986718e-01
1.033718e-01
1.204012e-01
1.390478e-01
1.592138e-01
1.807831e-01
2.033060e-01
2.264162e-01
2.497364e-01
2.729255e-01
2.957376e-01
3.180218e-01
3.396405e-01
3.604629e-01
3.802831e-01
3.987838e-01
4.158656e-01
4.315560e-01
4.459514e-01
4.585073e-01
4.693553e-01
4.789045e-01
4.871097e-01
4.935111e-01
4.980471e-01
1.043596e-01
1.223227e-01
1.418333e-01
1.628147e-01
1.850928e-01
2.082021e-01
2.317720e-01
2.554440e-01
2.789113e-01
3.019353e-01
3.243240e-01
3.459015e-01
3.664917e-01
3.859112e-01
4.040131e-01
4.207259e-01
4.359994e-01
4.497374e-01
4.618649e-01
4.724808e-01
4.815855e-01
4.890993e-01
4.948568e-01
4.986279e-01
1.053451e-01
1.242225e-01
1.446324e-01
1.664707e-01
1.894897e-01
2.131994e-01
2.372264e-01
2.612282e-01
2.849151e-01
3.174940e-01
2.983034e-01
2.813001e-01
2.670036e-01
2.525856e-01
2.379193e-01
2.230988e-01
2.082139e-01
1.933246e-01
1.784513e-01
1.636276e-01
1.488960e-01
1.341793e-01
1.185218e-01
1.069299e-01
3.080519e-01
3.304386e-01
3.518901e-01
3.722316e-01
3.913146e-01
4.090346e-01
4.253192e-01
4.401045e-01
4.533433e-01
4.650312e-01
4.751725e-01
4.837233e-01
4.906134e-01
4.957292e-01
4.989140e-01
1.062605e-01
1.261753e-01
1.476144e-01
1.703858e-01
1.941661e-01
2.184565e-01
2.428937e-01
2.671579e-01
2.909825e-01
3.141548e-01
3.364841e-01
3.577790e-01
3.778626e-01
3.965992e-01
4.139055e-01
4.297222e-01
4.440059e-01
4.567375e-01
4.679119e-01
4.775042e-01
4.854728e-01
4.917702e-01
4.963311e-01
4.990863e-01
1.073305e-01
1.284894e-01
1.510794e-01
1.748198e-01
1.993280e-01
2.241326e-01
2.488839e-01
2.733003e-01
2.971686e-01
3.203341e-01
3.425966e-01
3.637230e-01
3.835248e-01
4.018685e-01
4.187075e-01
4.340051e-01
4.477501e-01
4.599358e-01
4.705517e-01
4.795590e-01
4.869446e-01
4.926988e-01
4.967913e-01
4.992121e-01
1.089550e-01
1.315719e-01
1.553869e-01
1.800217e-01
2.051662e-01
2.303980e-01
2.552847e-01
2.796572e-01
3.034781e-01
3.267063e-01
3.489384e-01
3.698673e-01
3.893577e-01
4.072273e-01
4.235063e-01
4.381884e-01
4.513799e-01
4.630066e-01
4.730243e-01
4.813975e-01
4.882179e-01
4.935012e-01
4.971949e-01
4.993255e-01
1.113909e-01
1.359509e-01
1.608814e-01
1.860476e-01
2.118982e-01
2.375410e-01
2.620936e-01
2.859202e-01
3.098617e-01
3.335745e-01
3.556864e-01
3.762925e-01
3.955661e-01
4.128225e-01
4.282760e-01
4.421392e-01
4.550338e-01
4.661091e-01
4.753734e-01
4.829814e-01
4.893323e-01
4.942790e-01
3.432396e-01
3.238702e-01
3.018482e-01
2.905589e-01
2.771175e-01
2.628169e-01
2.480877e-01
2.331331e-01
2.180665e-01
2.029450e-01
1.877913e-01
1.726205e-01
1.575122e-01
1.427419e-01
1.293099e-01
1.151556e-01
4.976267e-01
4.994525e-01
1.166863e-01
1.436845e-01
1.665302e-01
1.927370e-01
2.201501e-01
2.463661e-01
2.689467e-01
2.890476e-01
3.174654e-01
3.415226e-01
3.628223e-01
3.827036e-01
4.030263e-01
4.192078e-01
4.319419e-01
4.455721e-01
4.594557e-01
4.697241e-01
4.770601e-01
4.841706e-01
4.902839e-01
4.952385e-01
4.982466e-01
4.995508e-01
4.995037e-01
4.992407e-01
4.978190e-01
4.995286e-01
4.986635e-01
4.969574e-01
4.947697e-01
4.992306e-01
4.977724e-01
4.958060e-01
4.932355e-01
4.902547e-01
4.985875e-01
4.968135e-01
4.944187e-01
4.914662e-01
4.880150e-01
4.841744e-01
4.992962e-01
4.972759e-01
4.955319e-01
4.928557e-01
4.895011e-01
4.855941e-01
4.812282e-01
4.764457e-01
4.671625e-01
4.990334e-01
4.969744e-01
4.942281e-01
4.911570e-01
4.873985e-01
4.830289e-01
4.781508e-01
4.728550e-01
4.566248e-01
4.995019e-01
4.984993e-01
4.962829e-01
4.931852e-01
4.894788e-01
4.852335e-01
4.803780e-01
4.749688e-01
4.691135e-01
4.629493e-01
4.448676e-01
4.992337e-01
4.976581e-01
4.953151e-01
4.919801e-01
4.878502e-01
4.830786e-01
4.777065e-01
4.717501e-01
4.652791e-01
4.584539e-01
4.515425e-01
4.987151e-01
4.968718e-01
4.941877e-01
4.906146e-01
4.861553e-01
4.809397e-01
4.750630e-01
4.685662e-01
4.614837e-01
4.538774e-01
4.460611e-01
4.385114e-01
4.311575e-01
4.147838e-01
4.994302e-01
4.976846e-01
4.959145e-01
4.930359e-01
4.891775e-01
4.844017e-01
4.787940e-01
4.724599e-01
4.654616e-01
4.578232e-01
4.495598e-01
4.404922e-01
4.317034e-01
4.239439e-01
3.514618e-01
3.672782e-01
4.992445e-01
4.976807e-01
4.951271e-01
4.919439e-01
4.877834e-01
4.826623e-01
4.766626e-01
4.698936e-01
4.624452e-01
4.543191e-01
4.455231e-01
4.361640e-01
4.234957e-01
4.157621e-01
4.092214e-01
3.918506e-01
8.740000e-02
8.740000e-02
8.740000e-02
8.740000e-02
8.740000e-02
8.740000e-02
8.740000e-02
8.740000e-02
8.740000e-02
8.740000e-02
8.740000e-02
8.740000e-02
8.740000e-02
8.740000e-02
8.740000e-02
8.740000e-02
8.740000e-02
8.740000e-02
8.740000e-02
8.740000e-02
8.740000e-02
8.740000e-02
8.740000e-02
8.740000e-02
8.740000e-02
8.740000e-02
8.740000e-02
8.740000e-02
8.740000e-02
8.740000e-02
8.740000e-02
8.740000e-02
8.740000e-02
8.740000e-02
8.740000e-02
8.740000e-02
8.740000e-02
8.740000e-02
8.740000e-02
8.740000e-02
8.740000e-02
8.740000e-02
8.740000e-02
8.740000e-02
8.740000e-02
8.740000e-02
8.740000e-02
8.740000e-02
8.740000e-02
8.740000e-02
8.740000e-02
8.740000e-02
8.740000e-02
8.740000e-02
8.740000e-02
8.740000e-02
8.740000e-02
8.740000e-02
8.740000e-02
8.740000e-02
8.740000e-02
8.740000e-02
8.740000e-02
8.740000e-02
8.740000e-02
8.740000e-02
8.740000e-02
8.740000e-02
8.740000e-02
8.740000e-02
8.740000e-02
8.740000e-02
8.740000e-02
8.740000e-02
8.740000e-02
8.740000e-02
8.740000e-02
8.740000e-02
8.740000e-02
8.740000e-02
8.740000e-02
8.740000e-02
8.740000e-02
8.740000e-02
8.740000e-02
8.740000e-02
8.740000e-02
8.740000e-02
8.740000e-02
8.740000e-02
8.740000e-02
8.740000e-02
8.740000e-02
8.740000e-02
8.740000e-02
8.740000e-02
8.740000e-02
8.740000e-02
8.740000e-02
8.740000e-02
8.740000e-02
8.740000e-02
8.740000e-02
8.740000e-02
8.740000e-02
8.740000e-02
8.740000e-02
8.740000e-02
8.740000e-02
8.740000e-02
8.740000e-02
8.740000e-02
8.740000e-02
8.740000e-02
8.740000e-02
8.740000e-02
8.740000e-02
8.740000e-02
8.740000e-02
8.740000e-02
8.740000e-02
8.740000e-02
8.740000e-02
8.740000e-02
8.740000e-02
8.740000e-02
8.740000e-02
8.740000e-02
8.740000e-02
8.740000e-02
8.740000e-02
8.740000e-02
8.740000e-02
8.740000e-02
8.740000e-02
8.740000e-02
8.740000e-02
8.740000e-02
8.740000e-02
8.740000e-02
8.740000e-02
8.740000e-02
8.740000e-02
8.740000e-02
8.740000e-02
8.740000e-02
8.740000e-02
8.740000e-02
8.740000e-02
8.740000e-02
8.740000e-02
8.740000e-02
8.740000e-02
8.740000e-02
8.740000e-02
8.740000e-02
8.740000e-02
8.740000e-02
8.740000e-02
8.740000e-02
8.740000e-02
8.740000e-02
8.740000e-02
8.740000e-02
8.740000e-02
8.740000e-02
8.740000e-02
8.740000e-02
8.740000e-02
8.740000e-02
8.740000e-02
8.740000e-02
8.740000e-02
8.740000e-02
8.740000e-02
8.740000e-02
8.740000e-02
8.740000e-02
8.740000e-02
8.740000e-02
8.740000e-02
8.740000e-02
8.740000e-02
8.740000e-02
8.740000e-02
8.740000e-02
8.740000e-02
8.740000e-02
8.740000e-02
8.740000e-02
8.740000e-02
8.740000e-02
8.740000e-02
8.740000e-02
8.740000e-02
8.740000e-02
8.740000e-02
8.740000e-02
8.740000e-02
8.740000e-02
8.740000e-02
8.740000e-02
8.740000e-02
8.740000e-02
8.740000e-02
8.740000e-02
8.740000e-02
8.740000e-02
8.740000e-02
8.740000e-02
8.740000e-02
8.740000e-02
8.740000e-02
8.740000e-02
8.740000e-02
8.740000e-02
8.740000e-02
8.740000e-02
8.740000e-02
8.740000e-02
8.740000e-02
8.740000e-02
8.740000e-02
8.740000e-02
8.740000e-02
8.740000e-02
8.740000e-02
8.740000e-02
8.740000e-02
8.740000e-02
8.740000e-02
8.740000e-02
8.740000e-02
8.740000e-02
8.740000e-02
8.740000e-02
8.740000e-02
8.740000e-02
8.740000e-02
8.740000e-02
8.740000e-02
8.740000e-02
8.740000e-02
8.740000e-02
8.740000e-02
8.740000e-02
8.740000e-02
8.740000e-02
8.740000e-02
8.740000e-02
8.740000e-02
8.740000e-02
8.740000e-02
8.740000e-02
8.740000e-02
8.740000e-02
8.740000e-02
8.740000e-02
8.740000e-02
8.740000e-02
8.740000e-02
8.740000e-02
8.740000e-02
8.740000e-02
8.740000e-02
8.740000e-02
8.740000e-02
8.740000e-02
8.740000e-02
8.740000e-02
8.740000e-02
8.740000e-02
8.740000e-02
8.740000e-02
8.740000e-02
8.740000e-02
8.740000e-02
8.740000e-02
8.740000e-02
8.740000e-02
8.740000e-02
8.740000e-02
8.740000e-02
8.740000e-02
8.740000e-02
8.740000e-02
8.740000e-02
8.740000e-02
8.740000e-02
8.740000e-02
8.740000e-02
8.740000e-02
8.740000e-02
8.740000e-02
8.740000e-02
8.740000e-02
8.740000e-02
8.740000e-02
8.740000e-02
8.740000e-02
8.740000e-02
8.740000e-02
8.740000e-02
8.740000e-02
8.740000e-02
8.740000e-02
8.740000e-02
8.740000e-02
8.740000e-02
8.740000e-02
8.740000e-02
8.740000e-02
8.740000e-02
8.740000e-02
8.740000e-02
8.740000e-02
8.740000e-02
8.740000e-02
8.740000e-02
8.740000e-02
8.740000e-02
8.740000e-02
8.740000e-02
8.740000e-02
8.740000e-02
8.740000e-02
8.740000e-02
8.740000e-02
8.740000e-02
8.740000e-02
8.740000e-02
8.740000e-02
8.740000e-02
8.740000e-02
8.740000e-02
8.740000e-02
8.740000e-02
8.740000e-02
8.740000e-02
8.740000e-02
8.740000e-02
8.740000e-02
8.740000e-02
8.740000e-02
8.740000e-02
8.740000e-02
8.740000e-02
8.740000e-02
8.740000e-02
8.740000e-02
8.740000e-02
8.740000e-02
8.740000e-02
8.740000e-02
8.740000e-02
8.740000e-02
8.740000e-02
8.740000e-02
8.740000e-02
8.740000e-02
8.740000e-02
8.740000e-02
8.740000e-02
8.740000e-02
8.740000e-02
8.740000e-02
8.740000e-02
8.740000e-02
8.740000e-02
8.740000e-02
2.374000e-01
2.374000e-01
2.374000e-01
2.374000e-01
2.374000e-01
2.374000e-01
2.374000e-01
2.374000e-01
2.374000e-01
2.374000e-01
2.374000e-01
2.374000e-01
2.374000e-01
2.374000e-01
2.374000e-01
2.374000e-01
2.374000e-01
2.374000e-01
2.374000e-01
2.374000e-01
2.374000e-01
2.374000e-01
2.374000e-01
2.374000e-01
2.374000e-01
2.374000e-01
2.374000e-01
2.374000e-01
2.374000e-01
2.374000e-01
2.374000e-01
2.374000e-01
2.374000e-01
1.893023e-01
1.818875e-01
2.005335e-01
1.860323e-01
1.921325e-01
1.778369e-01
1.774100e-01
1.711009e-01
1.666800e-01
1.914737e-01
1.853879e-01
1.795830e-01
1.909299e-01
1.786376e-01
1.885421e-01
1.042147e-01
2.355890e-01
2.327170e-01
2.263885e-01
2.292675e-01
2.271021e-01
2.212177e-01
2.274205e-01
2.235815e-01
2.196631e-01
2.203611e-01
2.155943e-01
2.106258e-01
2.161789e-01
2.110134e-01
2.060078e-01
2.002178e-01
2.341720e-01
2.112668e-01
2.056210e-01
1.998633e-01
1.962708e-01
1.886925e-01
1.872580e-01
1.918856e-01
1.794973e-01
2.067267e-01
1.964411e-01
2.365367e-01
1.843552e-01
1.697594e-01
1.760539e-01
1.701185e-01
1.637897e-01
1.587470e-01
1.564818e-01
1.611119e-01
1.548460e-01
1.499328e-01
1.462720e-01
1.514120e-01
1.438738e-01
1.403271e-01
1.364797e-01
1.329503e-01
1.301664e-01
1.268962e-01
1.199053e-01
1.175138e-01
1.074670e-01
1.443112e-01
1.287806e-01
1.165923e-01
1.068469e-01
9.662958e-02
2.264282e-01
2.212431e-01
2.366913e-01
2.341748e-01
2.356842e-01
2.301920e-01
2.322764e-01
2.275656e-01
2.217536e-01
2.307550e-01
2.338804e-01
2.363371e-01
1.220168e-01
1.102426e-01
9.773450e-02
1.216232e-01
1.077921e-01
9.509633e-02
2.262134e-01
2.210280e-01
2.366696e-01
2.341244e-01
2.356141e-01
2.301334e-01
2.321527e-01
2.273720e-01
2.214976e-01
1.216180e-01
1.100744e-01
9.768413e-02
1.222709e-01
1.082393e-01
9.524914e-02
2.366317e-01
2.339968e-01
2.354223e-01
2.299235e-01
2.317778e-01
2.269986e-01
2.214558e-01
1.227987e-01
1.107745e-01
9.777576e-02
2.364074e-01
2.329995e-01
2.292986e-01
2.266462e-01
2.230288e-01
2.216240e-01
2.130762e-01
1.220254e-01
1.088762e-01
9.597004e-02
1.477144e-01
1.341307e-01
1.204723e-01
1.057612e-01
9.504081e-02
2.271992e-01
2.223099e-01
2.366953e-01
2.342227e-01
2.356754e-01
2.303371e-01
2.323199e-01
2.275252e-01
2.218496e-01
1.245535e-01
1.122310e-01
9.892591e-02
1.223308e-01
1.087073e-01
2.194935e-01
2.251243e-01
2.293554e-01
2.328897e-01
9.559498e-02
2.367046e-01
2.343286e-01
2.308316e-01
1.244730e-01
1.124000e-01
9.822578e-02
2.250481e-01
2.195082e-01
2.364908e-01
2.337534e-01
2.353491e-01
2.295095e-01
2.314087e-01
2.235812e-01
2.258284e-01
2.160829e-01
2.193335e-01
1.435754e-01
1.308239e-01
1.181844e-01
1.070445e-01
9.619677e-02
1.192721e-01
1.061677e-01
9.456395e-02
2.365041e-01
2.335686e-01
2.350454e-01
2.291252e-01
2.311643e-01
2.263341e-01
2.206038e-01
2.093373e-01
1.204914e-01
1.098260e-01
9.719048e-02
2.368722e-01
2.339421e-01
2.295438e-01
2.263804e-01
2.227748e-01
2.211850e-01
2.123106e-01
1.220026e-01
1.082173e-01
9.564831e-02
1.467707e-01
1.334065e-01
1.200307e-01
1.055099e-01
9.490802e-02
2.261121e-01
2.208886e-01
2.365893e-01
2.340020e-01
2.355423e-01
2.300613e-01
2.319525e-01
2.268593e-01
2.209141e-01
1.236779e-01
1.116023e-01
9.860402e-02
1.207332e-01
1.077301e-01
9.517133e-02
2.264891e-01
2.213396e-01
2.366227e-01
2.007237e-01
2.339975e-01
2.355801e-01
2.299305e-01
2.321110e-01
2.273366e-01
2.214459e-01
1.220610e-01
1.101298e-01
9.742501e-02
1.198104e-01
1.070940e-01
9.490546e-02
2.366117e-01
2.339471e-01
2.353141e-01
2.299358e-01
2.313720e-01
2.258799e-01
2.199662e-01
1.206609e-01
1.097575e-01
9.712626e-02
2.365293e-01
2.344041e-01
2.313925e-01
2.255664e-01
2.257814e-01
2.202896e-01
2.157306e-01
1.209273e-01
1.074704e-01
9.517181e-02
1.509431e-01
1.373711e-01
1.208001e-01
1.079296e-01
9.685440e-02
2.365751e-01
2.337622e-01
2.349434e-01
2.168030e-01
2.228026e-01
2.276108e-01
2.313440e-01
2.337216e-01
2.362565e-01
2.294512e-01
2.310180e-01
2.258816e-01
2.201338e-01
1.206609e-01
1.093223e-01
9.748482e-02
2.367229e-01
2.332362e-01
2.269292e-01
2.217036e-01
2.147968e-01
1.215939e-01
1.081777e-01
9.530293e-02
9.858670e-02
2.315206e-01
2.291722e-01
2.248761e-01
2.244583e-01
2.174644e-01
2.160618e-01
2.184070e-01
2.098002e-01
2.001687e-01
2.043462e-01
2.089773e-01
2.116638e-01
1.912955e-01
1.973849e-01
2.024910e-01
2.020295e-01
1.753908e-01
1.636792e-01
1.543419e-01
1.450576e-01
1.351197e-01
1.240282e-01
1.135198e-01
1.067345e-01
9.802107e-02
1.123649e-01
1.175861e-01
1.270196e-01
1.276677e-01
1.430116e-01
1.397874e-01
1.372590e-01
1.541307e-01
1.504052e-01
1.475088e-01
1.571171e-01
1.683598e-01
1.638225e-01
1.600532e-01
1.814163e-01
1.772970e-01
1.724869e-01
1.689665e-01
1.666159e-01
1.960606e-01
1.763736e-01
1.856570e-01
1.906105e-01
2.353696e-01
9.726158e-02
2.361476e-01
2.358706e-01
2.343820e-01
2.323021e-01
2.368065e-01
2.269438e-01
2.241949e-01
2.209616e-01
2.011212e-01
2.071512e-01
2.141580e-01
2.205644e-01
2.258439e-01
2.300369e-01
2.333227e-01
2.358472e-01
2.367826e-01
2.353847e-01
2.328487e-01
2.294137e-01
2.083088e-01
2.364964e-01
2.345516e-01
2.317177e-01
2.277435e-01
2.231613e-01
2.186108e-01
2.140430e-01
2.369923e-01
2.358955e-01
2.330771e-01
2.309220e-01
2.255791e-01
2.205328e-01
2.158141e-01
2.119234e-01
2.040586e-01
1.977754e-01
1.030757e-01
9.527324e-02
1.241534e-01
1.158361e-01
1.053219e-01
9.760790e-02
1.280307e-01
1.144070e-01
1.619813e-01
1.548498e-01
1.443815e-01
1.307949e-01
1.196285e-01
1.102629e-01
1.017165e-01
9.552103e-02
1.460854e-01
1.348809e-01
2.239618e-01
2.162885e-01
2.079356e-01
1.975281e-01
1.855242e-01
1.721713e-01
1.582056e-01
2.366221e-01
2.346558e-01
2.304548e-01
2.237594e-01
2.151774e-01
2.044445e-01
1.930804e-01
1.808379e-01
1.683893e-01
1.575320e-01
1.451334e-01
1.348197e-01
1.232210e-01
1.100752e-01
9.940766e-02
1.755480e-01
1.667031e-01
1.561896e-01
1.441974e-01
1.331767e-01
1.233197e-01
1.143206e-01
1.063903e-01
9.832109e-02
9.528823e-02
2.105047e-01
2.019426e-01
1.907861e-01
1.776412e-01
1.154155e-01
1.094379e-01
9.911729e-02
1.613438e-01
1.474131e-01
1.336338e-01
1.194427e-01
1.067574e-01
9.694635e-02
2.237981e-01
2.160151e-01
2.073526e-01
1.964095e-01
1.843019e-01
1.713599e-01
1.578825e-01
1.439593e-01
1.317010e-01
1.186166e-01
2.364972e-01
2.345812e-01
2.304632e-01
2.243855e-01
2.153122e-01
2.026102e-01
1.905854e-01
1.778418e-01
1.648607e-01
1.527655e-01
2.364553e-01
2.334811e-01
2.291658e-01
2.243092e-01
2.173378e-01