VARIABLES = "X" "Y" "Z" "FREF"
ZONE T="instant 006"
STRANDID=0, SOLUTIONTIME=0
Nodes=3151, Elements=6298
ZONETYPE=FETriangle
DATAPACKING=BLOCK
VARLOCATION = ([1-3]=NODAL, [4]=CELLCENTERED)
5.000000e-01
6.012869e-02
8.655533e-02
1.115308e-01
1.347971e-01
1.615840e-01
1.896381e-01
2.182345e-01
2.471439e-01
2.758980e-01
3.040363e-01
3.306028e-01
3.554320e-01
3.792574e-01
4.009700e-01
4.197316e-01
4.352865e-01
4.472650e-01
4.580907e-01
4.690049e-01
4.784609e-01
4.860447e-01
4.917193e-01
4.958359e-01
4.984161e-01
4.997001e-01
4.060000e-02
4.060000e-02
4.060000e-02
4.060000e-02
4.060000e-02
4.060000e-02
4.060000e-02
4.060000e-02
4.060000e-02
4.060000e-02
4.060000e-02
4.060000e-02
1.901582e-01
1.889448e-01
1.865906e-01
1.831651e-01
1.790551e-01
1.750737e-01
1.700656e-01
1.638415e-01
1.567801e-01
1.496554e-01
1.418655e-01
1.328758e-01
1.244267e-01
1.159225e-01
1.069547e-01
9.542217e-02
8.428493e-02
7.523222e-02
6.462867e-02
5.276617e-02
1.906000e-01
4.768298e-01
4.457334e-01
4.193810e-01
3.920134e-01
3.559690e-01
3.204146e-01
2.902758e-01
2.615596e-01
2.320038e-01
2.074656e-01
2.797667e-01
9.806995e-02
8.371057e-02
2.926545e-01
2.714967e-01
9.704189e-02
1.117175e-01
8.859711e-02
1.191009e-01
6.726472e-02
1.255725e-01
1.068459e-01
1.326015e-01
1.494036e-01
4.789396e-01
1.714833e-01
1.956933e-01
1.602589e-01
1.751239e-01
1.956019e-01
2.251714e-01
2.619259e-01
2.406436e-01
2.525405e-01
2.774143e-01
3.109665e-01
2.843738e-01
4.692118e-01
4.534826e-01
3.003102e-01
3.310279e-01
3.255838e-01
3.522750e-01
3.545779e-01
3.661240e-01
2.077013e-01
2.522414e-01
2.316724e-01
2.036406e-01
8.682961e-02
6.919027e-02
6.076102e-02
6.389866e-02
6.458242e-02
8.792321e-02
1.111607e-01
6.577100e-02
8.974206e-02
1.138100e-01
1.379468e-01
5.411896e-02
7.010151e-02
9.182019e-02
1.164005e-01
4.743059e-01
1.407540e-01
1.651716e-01
1.675759e-01
1.924813e-01
1.717954e-01
1.928625e-01
2.191448e-01
6.467057e-02
9.055392e-02
1.170067e-01
1.451858e-01
1.195224e-01
1.206133e-01
1.357801e-01
1.541664e-01
1.897400e-01
2.117261e-01
2.258258e-01
2.450265e-01
6.267059e-02
8.648432e-02
1.128644e-01
1.431620e-01
1.683789e-01
1.890909e-01
2.130436e-01
1.852287e-01
2.058130e-01
2.149740e-01
2.339108e-01
2.533175e-01
2.765452e-01
1.410782e-01
1.619046e-01
1.855863e-01
2.345684e-01
4.660222e-01
4.498643e-01
4.357128e-01
4.189709e-01
2.568828e-01
2.790368e-01
3.036527e-01
1.433312e-01
2.091560e-01
2.326989e-01
2.582226e-01
2.800396e-01
3.030316e-01
3.283354e-01
1.638013e-01
1.874051e-01
2.161091e-01
2.329086e-01
2.569774e-01
2.854923e-01
4.572940e-01
4.382644e-01
4.209465e-01
4.033303e-01
3.823975e-01
3.020319e-01
3.249176e-01
3.509892e-01
2.495687e-01
2.783651e-01
3.166983e-01
3.439408e-01
3.716786e-01
1.622249e-01
1.848780e-01
2.106638e-01
2.398932e-01
3.068314e-01
3.353958e-01
3.630360e-01
3.909679e-01
2.708371e-01
3.002190e-01
3.275848e-01
3.551700e-01
3.817748e-01
4.089693e-01
3.861145e-01
4.070997e-01
1.789637e-01
2.046645e-01
2.321671e-01
2.623301e-01
2.946684e-01
3.244662e-01
3.476652e-01
3.759953e-01
3.998989e-01
4.264793e-01
3.054106e-01
3.221115e-01
4.477652e-01
4.276981e-01
4.090294e-01
3.908854e-01
3.718165e-01
3.516982e-01
3.314466e-01
3.413685e-01
3.610913e-01
3.796266e-01
3.974654e-01
4.171128e-01
4.374316e-01
4.060000e-02
4.995720e-01
4.974772e-01
4.938203e-01
4.886275e-01
4.805509e-01
4.711171e-01
4.594413e-01
4.454492e-01
4.278138e-01
4.081543e-01
3.895764e-01
3.686447e-01
3.444482e-01
3.190407e-01
2.969093e-01
2.772849e-01
2.567089e-01
2.317654e-01
2.043697e-01
1.768893e-01
1.498617e-01
1.235286e-01
9.857596e-02
7.571151e-02
5.601257e-02
5.000000e-01
2.067900e-01
2.304122e-01
2.614857e-01
2.954107e-01
3.269045e-01
3.572995e-01
3.865194e-01
4.184855e-01
4.521832e-01
4.798629e-01
1.906000e-01
5.079503e-02
6.096459e-02
7.271179e-02
8.521590e-02
9.639313e-02
1.066073e-01
1.166831e-01
1.262573e-01
1.347360e-01
1.416312e-01
1.493614e-01
1.563764e-01
1.623018e-01
1.673722e-01
1.722295e-01
1.776151e-01
1.818803e-01
1.846294e-01
1.869219e-01
1.888983e-01
1.901922e-01
4.060000e-02
4.060000e-02
4.060000e-02
4.060000e-02
4.060000e-02
4.060000e-02
4.060000e-02
4.060000e-02
4.060000e-02
4.060000e-02
4.060000e-02
2.658622e-01
3.214767e-01
9.105321e-02
1.243464e-01
1.200022e-01
2.127661e-01
2.268223e-01
2.423305e-01
2.484827e-01
2.777581e-01
2.797846e-01
2.916316e-01
2.740051e-01
3.777402e-01
6.086942e-02
3.454733e-01
3.172128e-01
3.573470e-01
2.948441e-01
3.430465e-01
3.225189e-01
3.693293e-01
3.508458e-01
6.530990e-02
1.080989e-01
9.177953e-02
8.340920e-02
6.755252e-02
1.101848e-01
1.477432e-01
1.147483e-01
1.563381e-01
1.443837e-01
1.803998e-01
1.655883e-01
2.006754e-01
2.246155e-01
6.480074e-02
2.090355e-01
6.214476e-02
7.121638e-02
8.635818e-02
1.990193e-01
2.216670e-01
2.437725e-01
4.700927e-01
4.383224e-01
4.558699e-01
4.695963e-01
3.935254e-01
4.088036e-01
4.239797e-01
4.396389e-01
1.068484e-01
9.079735e-02
6.539687e-02
4.584343e-01
3.924589e-01
4.073165e-01
4.234240e-01
4.495830e-01
3.718954e-01
3.788823e-01
4.228365e-01
4.375641e-01
2.074555e-01
2.220319e-01
2.422128e-01
3.594225e-01
3.814364e-01
4.152042e-01
3.103913e-01
3.463944e-01
3.597954e-01
3.751437e-01
3.883975e-01
3.975614e-01
4.053296e-01
1.859518e-01
2.656994e-01
2.977117e-01
3.340314e-01
3.530701e-01
3.771327e-01
4.032443e-01
1.957469e-01
2.115864e-01
2.318533e-01
3.224681e-01
3.453309e-01
1.317045e-01
1.153109e-01
3.666974e-01
3.883009e-01
1.705251e-01
2.565641e-01
2.868286e-01
3.183503e-01
3.343915e-01
3.528394e-01
3.713537e-01
1.817736e-01
1.982645e-01
2.185518e-01
3.026828e-01
3.204857e-01
3.365343e-01
3.527108e-01
2.411485e-01
1.566169e-01
1.366563e-01
1.141111e-01
8.994199e-02
6.473457e-02
2.651588e-01
2.927531e-01
3.042397e-01
3.182253e-01
3.321475e-01
1.516356e-01
1.647648e-01
1.834567e-01
2.026135e-01
2.722810e-01
2.854036e-01
2.986742e-01
3.102637e-01
2.207623e-01
2.376741e-01
2.523600e-01
2.672775e-01
2.789818e-01
2.876502e-01
6.581373e-02
9.213114e-02
1.274127e-01
1.552293e-01
1.821824e-01
2.090133e-01
2.335914e-01
1.306679e-01
1.447317e-01
1.716638e-01
1.824973e-01
1.991558e-01
2.173487e-01
2.352593e-01
2.523360e-01
2.568648e-01
2.628456e-01
1.824633e-01
1.612640e-01
1.398954e-01
1.174203e-01
9.258749e-02
6.612311e-02
1.903025e-01
2.106853e-01
2.342521e-01
1.465067e-01
1.664261e-01
1.864169e-01
2.085507e-01
5.000000e-01
5.000000e-01
5.000000e-01
5.000000e-01
5.000000e-01
5.000000e-01
5.000000e-01
5.000000e-01
5.000000e-01
5.000000e-01
5.000000e-01
5.000000e-01
5.000000e-01
5.000000e-01
5.000000e-01
5.000000e-01
5.000000e-01
5.000000e-01
5.000000e-01
5.000000e-01
5.000000e-01
5.000000e-01
5.000000e-01
5.000000e-01
5.000000e-01
5.000000e-01
5.000000e-01
5.000000e-01
5.000000e-01
5.000000e-01
5.000000e-01
5.000000e-01
5.000000e-01
4.060000e-02
4.060000e-02
4.060000e-02
4.060000e-02
4.060000e-02
4.060000e-02
4.060000e-02
4.060000e-02
4.060000e-02
4.060000e-02
4.060000e-02
4.060000e-02
4.060000e-02
4.060000e-02
4.060000e-02
4.060000e-02
4.060000e-02
4.060000e-02
4.060000e-02
4.060000e-02
4.060000e-02
4.060000e-02
4.060000e-02
4.060000e-02
4.060000e-02
4.060000e-02
4.060000e-02
4.060000e-02
4.060000e-02
4.060000e-02
4.060000e-02
4.060000e-02
4.060000e-02
3.418864e-01
3.573354e-01
3.495997e-01
3.641900e-01
3.789571e-01
3.804251e-01
3.537615e-01
3.660336e-01
2.888393e-01
3.039008e-01
3.150566e-01
3.173989e-01
3.276170e-01
3.352733e-01
3.459782e-01
3.782126e-01
3.559906e-01
3.434806e-01
3.654287e-01
3.864557e-01
3.313621e-01
3.321731e-01
7.059451e-02
5.876201e-02
3.514700e-01
3.728549e-01
3.935382e-01
3.697787e-01
3.842076e-01
3.982911e-01
3.891520e-01
4.021169e-01
4.064216e-01
4.320507e-01
3.607950e-01
3.774958e-01
3.523054e-01
3.862717e-01
3.644058e-01
3.418771e-01
3.942320e-01
3.728235e-01
3.534872e-01
3.336568e-01
3.932262e-01
4.089601e-01
4.044496e-01
3.885132e-01
3.759518e-01
9.594253e-02
8.053521e-02
6.337714e-02
3.259334e-01
3.414367e-01
3.544014e-01
3.158284e-01
3.304368e-01
3.052907e-01
6.169274e-02
7.877708e-02
8.374345e-02
1.016552e-01
1.079207e-01
1.228611e-01
1.280139e-01
1.339953e-01
1.347211e-01
1.463909e-01
1.542897e-01
1.609069e-01
1.617913e-01
1.727279e-01
1.811679e-01
1.880599e-01
1.789138e-01
1.901626e-01
1.999942e-01
2.081882e-01
2.149829e-01
1.969476e-01
2.076675e-01
2.179451e-01
2.270485e-01
2.347760e-01
2.412499e-01
2.129520e-01
1.212599e-01
1.054776e-01
8.895383e-02
7.221575e-02
6.000729e-02
2.243952e-01
2.351478e-01
2.449031e-01
2.533979e-01
2.605160e-01
2.665080e-01
2.392391e-01
2.511946e-01
2.617468e-01
2.709697e-01
2.788546e-01
2.850625e-01
2.904202e-01
2.536095e-01
2.660110e-01
2.775742e-01
2.874751e-01
2.960596e-01
3.035777e-01
3.077961e-01
3.126391e-01
2.664806e-01
2.793949e-01
2.919606e-01
3.035935e-01
3.117783e-01
3.200772e-01
3.295303e-01
3.265472e-01
3.339737e-01
3.451944e-01
4.012316e-01
3.190804e-01
3.390815e-01
3.616270e-01
1.472567e-01
1.316387e-01
1.151660e-01
9.869693e-02
8.357088e-02
7.007112e-02
3.842966e-01
3.058225e-01
3.284797e-01
3.523999e-01
3.755417e-01
3.946246e-01
4.109553e-01
3.547197e-01
3.688724e-01
3.746580e-01
3.834033e-01
3.904583e-01
3.984603e-01
4.063442e-01
4.139514e-01
4.144745e-01
4.178947e-01
4.215555e-01
4.256944e-01
4.286525e-01
4.318543e-01
3.975202e-01
4.086243e-01
4.169782e-01
4.247004e-01
4.321347e-01
4.379393e-01
4.413712e-01
4.125909e-01
4.179419e-01
4.257190e-01
4.343514e-01
4.410038e-01
4.459486e-01
4.499053e-01
4.286551e-01
4.434558e-01
4.417027e-01
4.515325e-01
4.541210e-01
4.577031e-01
4.619521e-01
4.649968e-01
4.413684e-01
4.572934e-01
4.658253e-01
4.712282e-01
4.536411e-01
4.666445e-01
4.720594e-01
4.765347e-01
4.729651e-01
4.819593e-01
1.744628e-01
1.585429e-01
1.420210e-01
1.252480e-01
1.088102e-01
9.283245e-02
7.524281e-02
6.107977e-02
4.792368e-01
4.869073e-01
4.815907e-01
4.879257e-01
4.942123e-01
4.975464e-01
4.943828e-01
4.902080e-01
4.897193e-01
4.852201e-01
4.833258e-01
4.841085e-01
4.754517e-01
4.763221e-01
4.776165e-01
4.792881e-01
4.662923e-01
4.669015e-01
4.682938e-01
4.702079e-01
4.724574e-01
4.557959e-01
4.572211e-01
4.593739e-01
4.619888e-01
4.648389e-01
4.531255e-01
4.565548e-01
4.426593e-01
4.443294e-01
4.467252e-01
4.497551e-01
4.278648e-01
4.296046e-01
4.321659e-01
4.356337e-01
4.397050e-01
4.438258e-01
4.476659e-01
4.122181e-01
4.132753e-01
4.156158e-01
4.193950e-01
4.243035e-01
4.297176e-01
4.342106e-01
4.379548e-01
3.772512e-01
3.777126e-01
3.957356e-01
3.971084e-01
4.006241e-01
4.065542e-01
4.133270e-01
4.209736e-01
4.226406e-01
4.275916e-01
3.778116e-01
3.937786e-01
3.657432e-01
1.127684e-01
1.480368e-01
1.269176e-01
1.536675e-01
1.425143e-01
1.808603e-01
1.715290e-01
1.602028e-01
2.161692e-01
2.010856e-01
2.022866e-01
1.859320e-01
1.692653e-01
1.523409e-01
1.353562e-01
1.184378e-01
1.014837e-01
8.533275e-02
7.087048e-02
1.893118e-01
1.780200e-01
2.459867e-01
2.317119e-01
2.185293e-01
2.067604e-01
1.956960e-01
2.613335e-01
2.475982e-01
2.352582e-01
2.239110e-01
2.131600e-01
2.899839e-01
2.758163e-01
2.631782e-01
2.516417e-01
2.408120e-01
2.303736e-01
3.167812e-01
3.028480e-01
2.901263e-01
2.785849e-01
2.678394e-01
2.574958e-01
2.472840e-01
3.408416e-01
3.286649e-01
3.158395e-01
3.044292e-01
2.939648e-01
2.839622e-01
2.739453e-01
2.637739e-01
3.604040e-01
3.552878e-01
3.400228e-01
3.289328e-01
3.188125e-01
3.095491e-01
3.000858e-01
2.899946e-01
2.796226e-01
4.186200e-01
4.044901e-01
3.869909e-01
3.671009e-01
3.441715e-01
3.195519e-01
2.945144e-01
3.996428e-01
3.811218e-01
3.596494e-01
3.327704e-01
3.079734e-01
6.071317e-02
6.093300e-02
6.453596e-02
8.342853e-02
7.946257e-02
9.195682e-02
1.080477e-01
6.288656e-02
8.276811e-02
1.006462e-01
1.170140e-01
1.337983e-01
6.594773e-02
8.711785e-02
1.067376e-01
1.251959e-01
1.430816e-01
1.605325e-01
2.302383e-01
2.134117e-01
1.965989e-01
1.796469e-01
1.625391e-01
1.452824e-01
1.279511e-01
1.107871e-01
9.395514e-02
7.580767e-02
6.045120e-02
5.928885e-02
7.314659e-02
9.276861e-02
1.128641e-01
1.324422e-01
1.514740e-01
1.700505e-01
1.879538e-01
5.733433e-02
6.349464e-02
8.188086e-02
9.989917e-02
1.194793e-01
1.393887e-01
1.591022e-01
1.785040e-01
1.975448e-01
2.159946e-01
7.007612e-02
8.826178e-02
1.072130e-01
1.264971e-01
1.462176e-01
1.661461e-01
1.860292e-01
2.056710e-01
2.251905e-01
2.457978e-01
2.676863e-01
5.952019e-02
7.711407e-02
9.444107e-02
1.138547e-01
1.336422e-01
1.529951e-01
1.725838e-01
1.927223e-01
2.127096e-01
2.322923e-01
2.516879e-01
2.708640e-01
2.867534e-01
6.094830e-02
8.090893e-02
9.929064e-02
1.192950e-01
1.406943e-01
1.603310e-01
1.784088e-01
1.982590e-01
2.189683e-01
2.386320e-01
2.578974e-01
2.765375e-01
2.942063e-01
3.079646e-01
5.138809e-02
6.317801e-02
8.210893e-02
1.056109e-01
1.211439e-01
1.467069e-01
1.687088e-01
1.865364e-01
2.005848e-01
2.246049e-01
2.443654e-01
2.635243e-01
2.825096e-01
2.996831e-01
3.196886e-01
3.283195e-01
2.579142e-01
2.405250e-01
2.236250e-01
2.068156e-01
1.898414e-01
1.725934e-01
1.551222e-01
1.375245e-01
1.198903e-01
1.021032e-01
8.451981e-02
6.605274e-02
4.989729e-01
4.996460e-01
4.965836e-01
4.983750e-01
4.995603e-01
4.929317e-01
4.959131e-01
4.980907e-01
4.994968e-01
4.835162e-01
4.883208e-01
4.922975e-01
4.954899e-01
4.979011e-01
4.994490e-01
4.658583e-01
4.760664e-01
4.825535e-01
4.875698e-01
4.917410e-01
4.951436e-01
4.977304e-01
4.993993e-01
4.699311e-01
4.760591e-01
4.817775e-01
4.868465e-01
4.911943e-01
4.947761e-01
4.975212e-01
4.993257e-01
4.547279e-01
4.616799e-01
4.683676e-01
4.748743e-01
4.807916e-01
4.860350e-01
4.905513e-01
4.942856e-01
4.971750e-01
4.991471e-01
4.996431e-01
4.421112e-01
4.514233e-01
4.593814e-01
4.667534e-01
4.735349e-01
4.796458e-01
4.850470e-01
4.896920e-01
4.935177e-01
4.964260e-01
4.982623e-01
4.995152e-01
4.168145e-01
4.290515e-01
4.398259e-01
4.490587e-01
4.573935e-01
4.650410e-01
4.720016e-01
4.782536e-01
4.837669e-01
4.884987e-01
4.924036e-01
4.954534e-01
4.978022e-01
4.994034e-01
3.830913e-01
4.009200e-01
4.154041e-01
4.273025e-01
4.375181e-01
4.467777e-01
2.850549e-01
2.668065e-01
2.498401e-01
2.334625e-01
2.168926e-01
1.999269e-01
1.825933e-01
1.649751e-01
1.471570e-01
1.291822e-01
1.112366e-01
9.349255e-02
7.697862e-02
4.552901e-01
4.630786e-01
4.701466e-01
4.764904e-01
4.820754e-01
4.868988e-01
4.910150e-01
4.944901e-01
4.973571e-01
4.992818e-01
6.299853e-02
8.686790e-02
1.123266e-01
1.390535e-01
1.664007e-01
1.937422e-01
2.206320e-01
2.467254e-01
2.717674e-01
2.956017e-01
3.183107e-01
3.401109e-01
3.609983e-01
3.812411e-01
4.000644e-01
4.170114e-01
4.322628e-01
4.465447e-01
4.606076e-01
4.694787e-01
4.780251e-01
4.868948e-01
4.927377e-01
4.971801e-01
3.678944e-01
3.877751e-01
4.012706e-01
4.141570e-01
4.248443e-01
4.348760e-01
4.442519e-01
4.528637e-01
4.606966e-01
4.678300e-01
4.742249e-01
4.798096e-01
4.847749e-01
4.892815e-01
4.931261e-01
4.970732e-01
4.988771e-01
6.444518e-02
8.948200e-02
1.158563e-01
1.432209e-01
1.709476e-01
1.984629e-01
2.253791e-01
2.514277e-01
2.764479e-01
3.003869e-01
3.232828e-01
3.451634e-01
3.660025e-01
3.856883e-01
4.039444e-01
4.206961e-01
4.359920e-01
4.499072e-01
4.619138e-01
4.721598e-01
4.810881e-01
4.885933e-01
4.943556e-01
4.983491e-01
6.563826e-02
9.164347e-02
1.188000e-01
1.467295e-01
1.747986e-01
2.024868e-01
2.294667e-01
2.555350e-01
2.805868e-01
3.045855e-01
3.275204e-01
3.493575e-01
3.700238e-01
3.894066e-01
4.073925e-01
4.239275e-01
4.389663e-01
4.524147e-01
4.641847e-01
4.743841e-01
4.830288e-01
4.900585e-01
4.953666e-01
4.987825e-01
6.666374e-02
9.353780e-02
1.214276e-01
1.498867e-01
1.782743e-01
2.061241e-01
2.331694e-01
2.592607e-01
2.843252e-01
3.117501e-01
2.920094e-01
2.744249e-01
2.591765e-01
2.433960e-01
2.269686e-01
2.100052e-01
1.926265e-01
1.749377e-01
1.570225e-01
1.389656e-01
1.209141e-01
1.029439e-01
8.348764e-02
6.597398e-02
3.083303e-01
3.312417e-01
3.529982e-01
3.735124e-01
3.926923e-01
4.104599e-01
4.267528e-01
4.415067e-01
4.546654e-01
4.662123e-01
4.761560e-01
4.844675e-01
4.910984e-01
4.959749e-01
4.989816e-01
6.757987e-02
9.541233e-02
1.240972e-01
1.530828e-01
1.817582e-01
2.097353e-01
2.368132e-01
2.628894e-01
2.879231e-01
3.118976e-01
3.347668e-01
3.564416e-01
3.768206e-01
3.958142e-01
4.133586e-01
4.293915e-01
4.438628e-01
4.567414e-01
4.680086e-01
4.776389e-01
4.856000e-01
4.918622e-01
4.963771e-01
4.990976e-01
6.870908e-02
9.774787e-02
1.273007e-01
1.567669e-01
1.856630e-01
2.137115e-01
2.407519e-01
2.667334e-01
2.916782e-01
3.156149e-01
3.384546e-01
3.600546e-01
3.802902e-01
3.990679e-01
4.163464e-01
4.320708e-01
4.462232e-01
4.587821e-01
4.697180e-01
4.789848e-01
4.865795e-01
4.924930e-01
4.966982e-01
4.991868e-01
7.071910e-02
1.012321e-01
1.315857e-01
1.613374e-01
1.903760e-01
2.184554e-01
2.453137e-01
2.710232e-01
2.958273e-01
3.198186e-01
3.426748e-01
3.641870e-01
3.842591e-01
4.027437e-01
4.196569e-01
4.349584e-01
4.487587e-01
4.609593e-01
4.714886e-01
4.803047e-01
4.875089e-01
4.931040e-01
4.970195e-01
4.992810e-01
7.430096e-02
1.067482e-01
1.373049e-01
1.669111e-01
1.962849e-01
2.244637e-01
2.507060e-01
2.755998e-01
3.005057e-01
3.249579e-01
3.477695e-01
3.690891e-01
3.890869e-01
4.071469e-01
4.233878e-01
4.380213e-01
4.516873e-01
4.635024e-01
4.734034e-01
4.815737e-01
4.884322e-01
4.937965e-01
3.377915e-01
3.178828e-01
2.954348e-01
2.836179e-01
2.691940e-01
2.535367e-01
2.371058e-01
2.201366e-01
2.027802e-01
1.851349e-01
1.672747e-01
1.492798e-01
1.312769e-01
1.135607e-01
9.645681e-02
7.884358e-02
4.974279e-01
4.994036e-01
8.201975e-02
1.161609e-01
1.430697e-01
1.733602e-01
2.041628e-01
2.327083e-01
2.567718e-01
2.773124e-01
3.068560e-01
3.317454e-01
3.538499e-01
3.745578e-01
3.957211e-01
4.130453e-01
4.264540e-01
4.409560e-01
4.557965e-01
4.669847e-01
4.748780e-01
4.826153e-01
4.893138e-01
4.947756e-01
4.980833e-01
4.995105e-01
4.994709e-01
4.991807e-01
4.976677e-01
4.994982e-01
4.985549e-01
4.967340e-01
4.943951e-01
4.991779e-01
4.976308e-01
4.955132e-01
4.927536e-01
4.895442e-01
4.984763e-01
4.966103e-01
4.940609e-01
4.908863e-01
4.871627e-01
4.830133e-01
4.992533e-01
4.971033e-01
4.952599e-01
4.924217e-01
4.888302e-01
4.846157e-01
4.798885e-01
4.747184e-01
4.647864e-01
4.989612e-01
4.967803e-01
4.939022e-01
4.906489e-01
4.866377e-01
4.819376e-01
4.766613e-01
4.709220e-01
4.536013e-01
4.994606e-01
4.983757e-01
4.960249e-01
4.927696e-01
4.888759e-01
4.843698e-01
4.791731e-01
4.733463e-01
4.670177e-01
4.603620e-01
4.412651e-01
4.991561e-01
4.974657e-01
4.949623e-01
4.914422e-01
4.871036e-01
4.820718e-01
4.763611e-01
4.699866e-01
4.630341e-01
4.556968e-01
4.482991e-01
4.985683e-01
4.965776e-01
4.937080e-01
4.899165e-01
4.852192e-01
4.797319e-01
4.735236e-01
4.666214e-01
4.590668e-01
4.509546e-01
4.426233e-01
4.346337e-01
4.270425e-01
4.102756e-01
4.993709e-01
4.974322e-01
4.955001e-01
4.923962e-01
4.882803e-01
4.832280e-01
4.773247e-01
4.706576e-01
4.632709e-01
4.551833e-01
4.464198e-01
4.368693e-01
4.275582e-01
4.194902e-01
3.459282e-01
3.619142e-01
4.991603e-01
4.974305e-01
4.946163e-01
4.911434e-01
4.866616e-01
4.812088e-01
4.748736e-01
4.677561e-01
4.599282e-01
4.513863e-01
4.421312e-01
4.322484e-01
4.189977e-01
4.110134e-01
4.044019e-01
3.867831e-01
4.060000e-02
4.060000e-02
4.060000e-02
4.060000e-02
4.060000e-02
4.060000e-02
4.060000e-02
4.060000e-02
4.060000e-02
4.060000e-02
4.060000e-02
4.060000e-02
4.060000e-02
4.060000e-02
4.060000e-02
4.060000e-02
4.060000e-02
4.060000e-02
4.060000e-02
4.060000e-02
4.060000e-02
4.060000e-02
4.060000e-02
4.060000e-02
4.060000e-02
4.060000e-02
4.060000e-02
4.060000e-02
4.060000e-02
4.060000e-02
4.060000e-02
4.060000e-02
4.060000e-02
4.060000e-02
4.060000e-02
4.060000e-02
4.060000e-02
4.060000e-02
4.060000e-02
4.060000e-02
4.060000e-02
4.060000e-02
4.060000e-02
4.060000e-02
4.060000e-02
4.060000e-02
4.060000e-02
4.060000e-02
4.060000e-02
4.060000e-02
4.060000e-02
4.060000e-02
4.060000e-02
4.060000e-02
4.060000e-02
4.060000e-02
4.060000e-02
4.060000e-02
4.060000e-02
4.060000e-02
4.060000e-02
4.060000e-02
4.060000e-02
4.060000e-02
4.060000e-02
4.060000e-02
4.060000e-02
4.060000e-02
4.060000e-02
4.060000e-02
4.060000e-02
4.060000e-02
4.060000e-02
4.060000e-02
4.060000e-02
4.060000e-02
4.060000e-02
4.060000e-02
4.060000e-02
4.060000e-02
4.060000e-02
4.060000e-02
4.060000e-02
4.060000e-02
4.060000e-02
4.060000e-02
4.060000e-02
4.060000e-02
4.060000e-02
4.060000e-02
4.060000e-02
4.060000e-02
4.060000e-02
4.060000e-02
4.060000e-02
4.060000e-02
4.060000e-02
4.060000e-02
4.060000e-02
4.060000e-02
4.060000e-02
4.060000e-02
4.060000e-02
4.060000e-02
4.060000e-02
4.060000e-02
4.060000e-02
4.060000e-02
4.060000e-02
4.060000e-02
4.060000e-02
4.060000e-02
4.060000e-02
4.060000e-02
4.060000e-02
4.060000e-02
4.060000e-02
4.060000e-02
4.060000e-02
4.060000e-02
4.060000e-02
4.060000e-02
4.060000e-02
4.060000e-02
4.060000e-02
4.060000e-02
4.060000e-02
4.060000e-02
4.060000e-02
4.060000e-02
4.060000e-02
4.060000e-02
4.060000e-02
4.060000e-02
4.060000e-02
4.060000e-02
4.060000e-02
4.060000e-02
4.060000e-02
4.060000e-02
4.060000e-02
4.060000e-02
4.060000e-02
4.060000e-02
4.060000e-02
4.060000e-02
4.060000e-02
4.060000e-02
4.060000e-02
4.060000e-02
4.060000e-02
4.060000e-02
4.060000e-02
4.060000e-02
4.060000e-02
4.060000e-02
4.060000e-02
4.060000e-02
4.060000e-02
4.060000e-02
4.060000e-02
4.060000e-02
4.060000e-02
4.060000e-02
4.060000e-02
4.060000e-02
4.060000e-02
4.060000e-02
4.060000e-02
4.060000e-02
4.060000e-02
4.060000e-02
4.060000e-02
4.060000e-02
4.060000e-02
4.060000e-02
4.060000e-02
4.060000e-02
4.060000e-02
4.060000e-02
4.060000e-02
4.060000e-02
4.060000e-02
4.060000e-02
4.060000e-02
4.060000e-02
4.060000e-02
4.060000e-02
4.060000e-02
4.060000e-02
4.060000e-02
4.060000e-02
4.060000e-02
4.060000e-02
4.060000e-02
4.060000e-02
4.060000e-02
4.060000e-02
4.060000e-02
4.060000e-02
4.060000e-02
4.060000e-02
4.060000e-02
4.060000e-02
4.060000e-02
4.060000e-02
4.060000e-02
4.060000e-02
4.060000e-02
4.060000e-02
4.060000e-02
4.060000e-02
4.060000e-02
4.060000e-02
4.060000e-02
4.060000e-02
4.060000e-02
4.060000e-02
4.060000e-02
4.060000e-02
4.060000e-02
4.060000e-02
4.060000e-02
4.060000e-02
4.060000e-02
4.060000e-02
4.060000e-02
4.060000e-02
4.060000e-02
4.060000e-02
4.060000e-02
4.060000e-02
4.060000e-02
4.060000e-02
4.060000e-02
4.060000e-02
4.060000e-02
4.060000e-02
4.060000e-02
4.060000e-02
4.060000e-02
4.060000e-02
4.060000e-02
4.060000e-02
4.060000e-02
4.060000e-02
4.060000e-02
4.060000e-02
4.060000e-02
4.060000e-02
4.060000e-02
4.060000e-02
4.060000e-02
4.060000e-02
4.060000e-02
4.060000e-02
4.060000e-02
4.060000e-02
4.060000e-02
4.060000e-02
4.060000e-02
4.060000e-02
4.060000e-02
4.060000e-02
4.060000e-02
4.060000e-02
4.060000e-02
4.060000e-02
4.060000e-02
4.060000e-02
4.060000e-02
4.060000e-02
4.060000e-02
4.060000e-02
4.060000e-02
4.060000e-02
4.060000e-02
4.060000e-02
4.060000e-02
4.060000e-02
4.060000e-02
4.060000e-02
4.060000e-02
4.060000e-02
4.060000e-02
4.060000e-02
4.060000e-02
4.060000e-02
4.060000e-02
4.060000e-02
4.060000e-02
4.060000e-02
4.060000e-02
4.060000e-02
4.060000e-02
4.060000e-02
4.060000e-02
4.060000e-02
4.060000e-02
4.060000e-02
4.060000e-02
4.060000e-02
4.060000e-02
4.060000e-02
4.060000e-02
4.060000e-02
4.060000e-02
4.060000e-02
4.060000e-02
4.060000e-02
4.060000e-02
4.060000e-02
4.060000e-02
4.060000e-02
4.060000e-02
4.060000e-02
4.060000e-02
4.060000e-02
4.060000e-02
4.060000e-02
4.060000e-02
4.060000e-02
4.060000e-02
4.060000e-02
4.060000e-02
4.060000e-02
4.060000e-02
4.060000e-02
4.060000e-02
4.060000e-02
4.060000e-02
4.060000e-02
4.060000e-02
4.060000e-02
4.060000e-02
4.060000e-02
4.060000e-02
4.060000e-02
4.060000e-02
4.060000e-02
4.060000e-02
4.060000e-02
4.060000e-02
4.060000e-02
4.060000e-02
4.060000e-02
4.060000e-02
4.060000e-02
4.060000e-02
4.060000e-02
4.060000e-02
4.060000e-02
4.060000e-02
4.060000e-02
4.060000e-02
4.060000e-02
4.060000e-02
4.060000e-02
4.060000e-02
4.060000e-02
4.060000e-02
4.060000e-02
4.060000e-02
4.060000e-02
4.060000e-02
4.060000e-02
4.060000e-02
4.060000e-02
4.060000e-02
4.060000e-02
1.906000e-01
1.906000e-01
1.906000e-01
1.906000e-01
1.906000e-01
1.906000e-01
1.906000e-01
1.906000e-01
1.906000e-01
1.906000e-01
1.906000e-01
1.906000e-01
1.906000e-01
1.906000e-01
1.906000e-01
1.906000e-01
1.906000e-01
1.906000e-01
1.906000e-01
1.906000e-01
1.906000e-01
1.906000e-01
1.906000e-01
1.906000e-01
1.906000e-01
1.906000e-01
1.906000e-01
1.906000e-01
1.906000e-01
1.906000e-01
1.906000e-01
1.906000e-01
1.906000e-01
1.480052e-01
1.416929e-01
1.578440e-01
1.457237e-01
1.510674e-01
1.382897e-01
1.370663e-01
1.314733e-01
1.267997e-01
1.521394e-01
1.466929e-01
1.412841e-01
1.516439e-01
1.402443e-01
1.493204e-01
5.983693e-02
1.889867e-01
1.864892e-01
1.814171e-01
1.835804e-01
1.817911e-01
1.768050e-01
1.818538e-01
1.785748e-01
1.753756e-01
1.757061e-01
1.717877e-01
1.676940e-01
1.719723e-01
1.676523e-01
1.636336e-01
1.587046e-01
1.880458e-01
1.673148e-01
1.626321e-01
1.578802e-01
1.549727e-01
1.484151e-01
1.444369e-01
1.490484e-01
1.376184e-01
1.627376e-01
1.536212e-01
1.899702e-01
1.426720e-01
1.291550e-01
1.371610e-01
1.314368e-01
1.248416e-01
1.192955e-01
1.165054e-01
1.234377e-01
1.164446e-01
1.108275e-01
1.064674e-01
1.139869e-01
1.057737e-01
1.012223e-01
9.652623e-02
9.425912e-02
9.054674e-02
8.635599e-02
7.927241e-02
7.593834e-02
6.432357e-02
1.067033e-01
9.005964e-02
7.615531e-02
6.482553e-02
5.249529e-02
1.815792e-01
1.769047e-01
1.900181e-01
1.879552e-01
1.892700e-01
1.846794e-01
1.864846e-01
1.825193e-01
1.772877e-01
1.852200e-01
1.879237e-01
1.898596e-01
8.284705e-02
6.937102e-02
5.397625e-02
8.211611e-02
6.568386e-02
5.014563e-02
1.815282e-01
1.768631e-01
1.900622e-01
1.880430e-01
1.892655e-01
1.847654e-01
1.864736e-01
1.824801e-01
1.772173e-01
8.219178e-02
6.905042e-02
5.401157e-02
8.276074e-02
6.610205e-02
5.026805e-02
1.900542e-01
1.880066e-01
1.891566e-01
1.846952e-01
1.862037e-01
1.821652e-01
1.771800e-01
8.343790e-02
6.976308e-02
5.404895e-02
1.898604e-01
1.871289e-01
1.838642e-01
1.817277e-01
1.783544e-01
1.771961e-01
1.701060e-01
8.237061e-02
6.691853e-02
5.108745e-02
1.093716e-01
9.509945e-02
7.987584e-02
6.257599e-02
4.984292e-02
1.821253e-01
1.777055e-01
1.900516e-01
1.880511e-01
1.892614e-01
1.849194e-01
1.864803e-01
1.824349e-01
1.773907e-01
8.473072e-02
7.086119e-02
5.503666e-02
8.234859e-02
6.638566e-02
1.763283e-01
1.806847e-01
1.842362e-01
1.872344e-01
5.053983e-02
1.900943e-01
1.881409e-01
1.852568e-01
8.522322e-02
7.156276e-02
5.449858e-02
1.809508e-01
1.760613e-01
1.899566e-01
1.878398e-01
1.891199e-01
1.843330e-01
1.860138e-01
1.792239e-01
1.814583e-01
1.728001e-01
1.757725e-01
1.062353e-01
9.271828e-02
7.852295e-02
6.531349e-02
5.190277e-02
7.977909e-02
6.400902e-02
4.960041e-02
1.900054e-01
1.878269e-01
1.890381e-01
1.843496e-01
1.859471e-01
1.819613e-01
1.769318e-01
1.680019e-01
8.166127e-02
6.929594e-02
5.367116e-02
1.902033e-01
1.879314e-01
1.843055e-01
1.817797e-01
1.785594e-01
1.772098e-01
1.700824e-01
8.288042e-02
6.656428e-02
5.093542e-02
1.093141e-01
9.509785e-02
7.998527e-02
6.265757e-02
4.987560e-02
1.815058e-01
1.768427e-01
1.900206e-01
1.880131e-01
1.892300e-01
1.848954e-01
1.863679e-01
1.821978e-01
1.770215e-01
8.448363e-02
7.073443e-02
5.498975e-02
8.117572e-02
6.567946e-02
5.024614e-02
1.818296e-01
1.771873e-01
1.900489e-01
1.603462e-01
1.880064e-01
1.892690e-01
1.847213e-01
1.865004e-01
1.825295e-01
1.772723e-01
8.283339e-02
6.918695e-02
5.370994e-02
8.052153e-02
6.517729e-02
5.001740e-02
1.900556e-01
1.880270e-01
1.890851e-01
1.848187e-01
1.859308e-01
1.814207e-01
1.763116e-01
8.172032e-02
6.912571e-02
5.351750e-02
1.900037e-01
1.882477e-01
1.856565e-01
1.812949e-01
1.809879e-01
1.767026e-01
1.726421e-01
8.151995e-02
6.550713e-02
5.026004e-02
1.137974e-01
9.947603e-02
8.069977e-02
6.582299e-02
5.264676e-02
1.900126e-01
1.879178e-01
1.890330e-01
1.739079e-01
1.788063e-01
1.828738e-01
1.860166e-01
1.879909e-01
1.899103e-01
1.846163e-01
1.859340e-01
1.817714e-01
1.768557e-01
8.140256e-02
6.837392e-02
5.374838e-02
1.901385e-01
1.875492e-01
1.827972e-01
1.782763e-01
1.722228e-01
8.197660e-02
6.599512e-02
5.027563e-02
5.445849e-02
1.862394e-01
1.842786e-01
1.808430e-01
1.802102e-01
1.750111e-01
1.735876e-01
1.752597e-01
1.684932e-01
1.600605e-01
1.636528e-01
1.674680e-01
1.695962e-01
1.520274e-01
1.573960e-01
1.617109e-01
1.612570e-01
1.371186e-01
1.257609e-01
1.164226e-01
1.068969e-01
9.642418e-02
8.430606e-02
7.213525e-02
6.395225e-02
5.372412e-02
7.060605e-02
7.665384e-02
8.742675e-02
8.809155e-02
1.050969e-01
1.014054e-01
9.872107e-02
1.164251e-01
1.125352e-01
1.095066e-01
1.192479e-01
1.304746e-01
1.260712e-01
1.222678e-01
1.427922e-01
1.391244e-01
1.344933e-01
1.309815e-01
1.285984e-01
1.559874e-01
1.378382e-01
1.464614e-01
1.510201e-01
1.892690e-01
5.271868e-02
1.894473e-01
1.892680e-01
1.878208e-01
1.859013e-01
1.900734e-01
1.809859e-01
1.785684e-01
1.753592e-01
1.605353e-01
1.658125e-01
1.715543e-01
1.769917e-01
1.814034e-01
1.849230e-01
1.877429e-01
1.896177e-01
1.900654e-01
1.888520e-01
1.864742e-01
1.834198e-01
1.635008e-01
1.898213e-01
1.881174e-01
1.855023e-01
1.819240e-01
1.777747e-01
1.733462e-01
1.688691e-01
1.902599e-01
1.892890e-01
1.868891e-01
1.848520e-01
1.800427e-01
1.755516e-01
1.710557e-01
1.671151e-01
1.597917e-01
1.540701e-01
5.849654e-02
4.958129e-02
8.205412e-02
7.298720e-02
6.138701e-02
5.248223e-02
8.615397e-02
7.124254e-02
1.206345e-01
1.139086e-01
1.034656e-01
8.939419e-02
7.750065e-02
6.711290e-02
5.741652e-02
5.014046e-02
1.049345e-01
9.353374e-02
1.792843e-01
1.726456e-01
1.653969e-01
1.563540e-01
1.457827e-01
1.337433e-01
1.206254e-01
1.899419e-01
1.881898e-01
1.847599e-01
1.790067e-01
1.715120e-01
1.624737e-01
1.525367e-01
1.417267e-01
1.305627e-01
1.201951e-01
1.075800e-01
9.666867e-02
8.368701e-02
6.818297e-02
5.520464e-02
1.335091e-01
1.256288e-01
1.157110e-01
1.037502e-01
9.245018e-02
8.196125e-02
7.199501e-02
6.287594e-02
5.351353e-02
4.992680e-02
1.676456e-01
1.601083e-01
1.503827e-01
1.385843e-01
7.454556e-02
6.777769e-02
5.491518e-02
1.235484e-01
1.098621e-01
9.546812e-02
7.969478e-02
6.462232e-02
5.268479e-02
1.792435e-01
1.725060e-01
1.650825e-01
1.557069e-01
1.450489e-01
1.332376e-01
1.203268e-01
1.062802e-01
9.334684e-02
7.881340e-02
1.899142e-01
1.883083e-01
1.850028e-01
1.796838e-01
1.715747e-01
1.611676e-01
1.506240e-01
1.392085e-01
1.271767e-01
1.153013e-01
1.898680e-01
1.874808e-01
1.838582e-01