VARIABLES = "X" "Y" "Z" "FREF"
ZONE T="instant 060"
STRANDID=0, SOLUTIONTIME=0
Nodes=3151, Elements=6298
ZONETYPE=FETriangle
DATAPACKING=BLOCK
VARLOCATION = ([1-3]=NODAL, [4]=CELLCENTERED)
5.000000e-01
1.971278e-01
2.168192e-01
2.337128e-01
2.487472e-01
2.659004e-01
2.838553e-01
3.025074e-01
3.221679e-01
3.424352e-01
3.622719e-01
3.805425e-01
3.976344e-01
4.137784e-01
4.286527e-01
4.417694e-01
4.528476e-01
4.612717e-01
4.689895e-01
4.770478e-01
4.840710e-01
4.896608e-01
4.937892e-01
4.968120e-01
4.987681e-01
4.997715e-01
1.810000e-01
1.810000e-01
1.810000e-01
1.810000e-01
1.810000e-01
1.810000e-01
1.810000e-01
1.810000e-01
1.810000e-01
1.810000e-01
1.810000e-01
1.810000e-01
3.302620e-01
3.286679e-01
3.248940e-01
3.188531e-01
3.116996e-01
3.065876e-01
3.001179e-01
2.918307e-01
2.837101e-01
2.759487e-01
2.675680e-01
2.578827e-01
2.498300e-01
2.421278e-01
2.346160e-01
2.253590e-01
2.161337e-01
2.091104e-01
2.005758e-01
1.910866e-01
3.310000e-01
4.851469e-01
4.682315e-01
4.528963e-01
4.375373e-01
4.205864e-01
4.031160e-01
3.871376e-01
3.717479e-01
3.563790e-01
3.427590e-01
3.713981e-01
2.230115e-01
2.123503e-01
3.843947e-01
3.629659e-01
2.275681e-01
2.378199e-01
2.190512e-01
2.405258e-01
2.004934e-01
2.415691e-01
2.284674e-01
2.460223e-01
2.576157e-01
4.863302e-01
2.709847e-01
2.868536e-01
2.641110e-01
2.749317e-01
3.198986e-01
3.322294e-01
3.687570e-01
3.480079e-01
3.497549e-01
3.791177e-01
3.901715e-01
3.689108e-01
4.800205e-01
4.705966e-01
3.809562e-01
3.987314e-01
3.910860e-01
4.094792e-01
4.029703e-01
4.143360e-01
3.417976e-01
3.657815e-01
3.537531e-01
3.348859e-01
2.197116e-01
2.056651e-01
1.958368e-01
1.984826e-01
1.981748e-01
2.148586e-01
2.312284e-01
1.990665e-01
2.157079e-01
2.322016e-01
2.489830e-01
1.909890e-01
2.024813e-01
2.173544e-01
2.336564e-01
4.830123e-01
2.499723e-01
2.666073e-01
2.675234e-01
2.845554e-01
2.700142e-01
2.846036e-01
3.024308e-01
1.980087e-01
2.163340e-01
2.341478e-01
2.524672e-01
2.452635e-01
2.452627e-01
2.551517e-01
2.639977e-01
2.830728e-01
2.980328e-01
3.081653e-01
3.210165e-01
1.974898e-01
2.142819e-01
2.321886e-01
2.520204e-01
2.676064e-01
2.815949e-01
2.981538e-01
2.842434e-01
2.958756e-01
3.005348e-01
3.136588e-01
3.274824e-01
3.437115e-01
2.606641e-01
2.743334e-01
2.881579e-01
3.140616e-01
4.775975e-01
4.677759e-01
4.607614e-01
4.521339e-01
3.295101e-01
3.451671e-01
3.622070e-01
2.661272e-01
3.014389e-01
3.157605e-01
3.311549e-01
3.457777e-01
3.618225e-01
3.791732e-01
2.804616e-01
2.951919e-01
3.104714e-01
3.182534e-01
3.335679e-01
3.505720e-01
4.717179e-01
4.606936e-01
4.511375e-01
4.428341e-01
4.335436e-01
3.609664e-01
3.769709e-01
3.947625e-01
3.311388e-01
3.493876e-01
3.715106e-01
3.903015e-01
4.091695e-01
2.849128e-01
2.996614e-01
3.151776e-01
3.318151e-01
3.676107e-01
3.859478e-01
4.043083e-01
4.228417e-01
3.488566e-01
3.659059e-01
3.828065e-01
4.003124e-01
4.175789e-01
4.354163e-01
4.241812e-01
4.357304e-01
3.018637e-01
3.169568e-01
3.329225e-01
3.496352e-01
3.664922e-01
3.825089e-01
3.966221e-01
4.146492e-01
4.297131e-01
4.472525e-01
3.932032e-01
4.004617e-01
4.646274e-01
4.532926e-01
4.433470e-01
4.340178e-01
4.255073e-01
4.172784e-01
4.071885e-01
4.079865e-01
4.166214e-01
4.259795e-01
4.343367e-01
4.447254e-01
4.564265e-01
1.810000e-01
4.996772e-01
4.977339e-01
4.944447e-01
4.899820e-01
4.828015e-01
4.745044e-01
4.639003e-01
4.507873e-01
4.346310e-01
4.180210e-01
4.029739e-01
3.868323e-01
3.700153e-01
3.523122e-01
3.369731e-01
3.241040e-01
3.112401e-01
2.970408e-01
2.819689e-01
2.667988e-01
2.517051e-01
2.365889e-01
2.216807e-01
2.070181e-01
1.931599e-01
5.000000e-01
3.425767e-01
3.563540e-01
3.715547e-01
3.881688e-01
4.041245e-01
4.196525e-01
4.362329e-01
4.541937e-01
4.714144e-01
4.870579e-01
3.310000e-01
1.905761e-01
2.000407e-01
2.113144e-01
2.243810e-01
2.349098e-01
2.449984e-01
2.548612e-01
2.645780e-01
2.729671e-01
2.793144e-01
2.875471e-01
2.950065e-01
3.009464e-01
3.057722e-01
3.103815e-01
3.166659e-01
3.213160e-01
3.239812e-01
3.264216e-01
3.287863e-01
3.304937e-01
1.810000e-01
1.810000e-01
1.810000e-01
1.810000e-01
1.810000e-01
1.810000e-01
1.810000e-01
1.810000e-01
1.810000e-01
1.810000e-01
1.810000e-01
3.721300e-01
4.002975e-01
2.156970e-01
2.448510e-01
2.360509e-01
3.406835e-01
3.470786e-01
3.603235e-01
3.591568e-01
3.780757e-01
3.785049e-01
3.863044e-01
3.682578e-01
4.215026e-01
1.949072e-01
4.092422e-01
3.894748e-01
4.119900e-01
3.760547e-01
4.022112e-01
3.900112e-01
4.178764e-01
4.056144e-01
1.985731e-01
2.450908e-01
2.185216e-01
2.099382e-01
1.986135e-01
2.395146e-01
2.645787e-01
2.306694e-01
2.637251e-01
2.497855e-01
2.732180e-01
2.603422e-01
2.828052e-01
2.942696e-01
2.050307e-01
3.436314e-01
1.972859e-01
2.076814e-01
2.241977e-01
3.347818e-01
3.488258e-01
3.602912e-01
4.825849e-01
4.649485e-01
4.744924e-01
4.791037e-01
4.398308e-01
4.481843e-01
4.554291e-01
4.618756e-01
2.243344e-01
2.127983e-01
1.968687e-01
4.710047e-01
4.369587e-01
4.437464e-01
4.504948e-01
4.646044e-01
4.267925e-01
4.301601e-01
4.485628e-01
4.559152e-01
3.340666e-01
3.415511e-01
3.508831e-01
4.090495e-01
4.225525e-01
4.400824e-01
3.954252e-01
4.126062e-01
4.185589e-01
4.260407e-01
4.310256e-01
4.338407e-01
4.376039e-01
3.204160e-01
3.592953e-01
3.735216e-01
3.926977e-01
4.025298e-01
4.149641e-01
4.259754e-01
3.247483e-01
3.306936e-01
3.394734e-01
3.815854e-01
3.933950e-01
2.393311e-01
2.281401e-01
4.030369e-01
4.114238e-01
3.061169e-01
3.476911e-01
3.572009e-01
3.741405e-01
3.819140e-01
3.895987e-01
3.964856e-01
3.111002e-01
3.161748e-01
3.240198e-01
3.604703e-01
3.689790e-01
3.752799e-01
3.812385e-01
3.298617e-01
2.535518e-01
2.406878e-01
2.264726e-01
2.116947e-01
1.960896e-01
3.353944e-01
3.501835e-01
3.549964e-01
3.601474e-01
3.653860e-01
2.880036e-01
2.933768e-01
2.986169e-01
3.063542e-01
3.347807e-01
3.395380e-01
3.447771e-01
3.493305e-01
3.102279e-01
3.137876e-01
3.185804e-01
3.248794e-01
3.301460e-01
3.330440e-01
1.983768e-01
2.156342e-01
2.361677e-01
2.524446e-01
2.677390e-01
2.832729e-01
2.986559e-01
2.667553e-01
2.704336e-01
2.846544e-01
2.875954e-01
2.903277e-01
2.966757e-01
3.042188e-01
3.132347e-01
3.139571e-01
3.154171e-01
2.682143e-01
2.549609e-01
2.418004e-01
2.283705e-01
2.136453e-01
1.976683e-01
2.719269e-01
2.844828e-01
2.982464e-01
2.463015e-01
2.574093e-01
2.697667e-01
2.831994e-01
5.000000e-01
5.000000e-01
5.000000e-01
5.000000e-01
5.000000e-01
5.000000e-01
5.000000e-01
5.000000e-01
5.000000e-01
5.000000e-01
5.000000e-01
5.000000e-01
5.000000e-01
5.000000e-01
5.000000e-01
5.000000e-01
5.000000e-01
5.000000e-01
5.000000e-01
5.000000e-01
5.000000e-01
5.000000e-01
5.000000e-01
5.000000e-01
5.000000e-01
5.000000e-01
5.000000e-01
5.000000e-01
5.000000e-01
5.000000e-01
5.000000e-01
5.000000e-01
5.000000e-01
1.810000e-01
1.810000e-01
1.810000e-01
1.810000e-01
1.810000e-01
1.810000e-01
1.810000e-01
1.810000e-01
1.810000e-01
1.810000e-01
1.810000e-01
1.810000e-01
1.810000e-01
1.810000e-01
1.810000e-01
1.810000e-01
1.810000e-01
1.810000e-01
1.810000e-01
1.810000e-01
1.810000e-01
1.810000e-01
1.810000e-01
1.810000e-01
1.810000e-01
1.810000e-01
1.810000e-01
1.810000e-01
1.810000e-01
1.810000e-01
1.810000e-01
1.810000e-01
1.810000e-01
3.602827e-01
3.706135e-01
3.665674e-01
3.766040e-01
3.872838e-01
4.125732e-01
3.943182e-01
4.022617e-01
3.257149e-01
3.346674e-01
3.422815e-01
3.433019e-01
3.507175e-01
3.566283e-01
3.614580e-01
3.853625e-01
3.684102e-01
3.597569e-01
3.759616e-01
3.922699e-01
3.519010e-01
3.516771e-01
2.037406e-01
1.947260e-01
3.658380e-01
3.820392e-01
3.985077e-01
3.814365e-01
3.918954e-01
4.027396e-01
3.963325e-01
4.061918e-01
4.104395e-01
4.305069e-01
3.982403e-01
4.105561e-01
3.928214e-01
4.168006e-01
4.014747e-01
3.855331e-01
4.223513e-01
4.077036e-01
3.939840e-01
3.800678e-01
4.214676e-01
4.326681e-01
4.291327e-01
4.180614e-01
4.088829e-01
2.218939e-01
2.107376e-01
1.978680e-01
3.751469e-01
3.853172e-01
3.939306e-01
3.678041e-01
3.775860e-01
3.604162e-01
1.946661e-01
2.050709e-01
2.072365e-01
2.176284e-01
2.202992e-01
2.286241e-01
2.311437e-01
2.339734e-01
2.350855e-01
2.413941e-01
2.449762e-01
2.481436e-01
2.495799e-01
2.552224e-01
2.592380e-01
2.627224e-01
2.583143e-01
2.645200e-01
2.697387e-01
2.739175e-01
2.776355e-01
2.683974e-01
2.741017e-01
2.797839e-01
2.847524e-01
2.889419e-01
2.927904e-01
2.781136e-01
2.390000e-01
2.279095e-01
2.160923e-01
2.038389e-01
1.956567e-01
2.841470e-01
2.899130e-01
2.953290e-01
3.001408e-01
3.041863e-01
3.080544e-01
2.936117e-01
3.001411e-01
3.058531e-01
3.111063e-01
3.158535e-01
3.194467e-01
3.232466e-01
3.023185e-01
3.098061e-01
3.165395e-01
3.218564e-01
3.270497e-01
3.320198e-01
3.342735e-01
3.381894e-01
3.109866e-01
3.187370e-01
3.264090e-01
3.335156e-01
3.375278e-01
3.431421e-01
3.495366e-01
3.473844e-01
3.533897e-01
3.679549e-01
4.074936e-01
3.476274e-01
3.620890e-01
3.781031e-01
2.560283e-01
2.452958e-01
2.339996e-01
2.226317e-01
2.124052e-01
2.022422e-01
3.943483e-01
3.375169e-01
3.531733e-01
3.698606e-01
3.865445e-01
4.013946e-01
4.151139e-01
3.685567e-01
3.779353e-01
3.836816e-01
3.896359e-01
3.948879e-01
4.015618e-01
4.084940e-01
4.153846e-01
4.160340e-01
4.195990e-01
4.235992e-01
4.256499e-01
4.285663e-01
4.321341e-01
4.015886e-01
4.100258e-01
4.172451e-01
4.243180e-01
4.311988e-01
4.367208e-01
4.403430e-01
4.145457e-01
4.181679e-01
4.247016e-01
4.328003e-01
4.391864e-01
4.439257e-01
4.480046e-01
4.282243e-01
4.411173e-01
4.393105e-01
4.490684e-01
4.515110e-01
4.552299e-01
4.591548e-01
4.622087e-01
4.398806e-01
4.543248e-01
4.630785e-01
4.684447e-01
4.511054e-01
4.636735e-01
4.693429e-01
4.739667e-01
4.703376e-01
4.796699e-01
2.735971e-01
2.628384e-01
2.517301e-01
2.405494e-01
2.296749e-01
2.186878e-01
2.058524e-01
1.965473e-01
4.767039e-01
4.849906e-01
4.792375e-01
4.859988e-01
4.931927e-01
4.980832e-01
4.956864e-01
4.925825e-01
4.921210e-01
4.888997e-01
4.872429e-01
4.879731e-01
4.812001e-01
4.820883e-01
4.831913e-01
4.845124e-01
4.740858e-01
4.749396e-01
4.762014e-01
4.777319e-01
4.794487e-01
4.664770e-01
4.679025e-01
4.696613e-01
4.716627e-01
4.737966e-01
4.651138e-01
4.676640e-01
4.565531e-01
4.582679e-01
4.602645e-01
4.625869e-01
4.453974e-01
4.473156e-01
4.495024e-01
4.521537e-01
4.551791e-01
4.582591e-01
4.610958e-01
4.334563e-01
4.351914e-01
4.373606e-01
4.402509e-01
4.438619e-01
4.477939e-01
4.511885e-01
4.538182e-01
4.084602e-01
4.098223e-01
4.221487e-01
4.239267e-01
4.266603e-01
4.310521e-01
4.357753e-01
4.412641e-01
4.424168e-01
4.461892e-01
4.106756e-01
4.224725e-01
4.025361e-01
2.269355e-01
2.502358e-01
2.373641e-01
2.554833e-01
2.490908e-01
2.726205e-01
2.682847e-01
2.615886e-01
2.949404e-01
2.871447e-01
2.916764e-01
2.806209e-01
2.694599e-01
2.582885e-01
2.472039e-01
2.360602e-01
2.244989e-01
2.136432e-01
2.028218e-01
2.806419e-01
2.739238e-01
3.151247e-01
3.070411e-01
2.996552e-01
2.927474e-01
2.860134e-01
3.267686e-01
3.188229e-01
3.115250e-01
3.045987e-01
2.978672e-01
3.460940e-01
3.377989e-01
3.301775e-01
3.230699e-01
3.162446e-01
3.095123e-01
3.645668e-01
3.563510e-01
3.484980e-01
3.412712e-01
3.344431e-01
3.277397e-01
3.209438e-01
3.815566e-01
3.744691e-01
3.662780e-01
3.590041e-01
3.522564e-01
3.457714e-01
3.390738e-01
3.320798e-01
3.957045e-01
3.932679e-01
3.832203e-01
3.761230e-01
3.693924e-01
3.633882e-01
3.571019e-01
3.500298e-01
3.428116e-01
4.399998e-01
4.297775e-01
4.170816e-01
4.028353e-01
3.870912e-01
3.703360e-01
3.530857e-01
4.266656e-01
4.129336e-01
3.975231e-01
3.798116e-01
3.627868e-01
1.952575e-01
1.937743e-01
1.964647e-01
2.102508e-01
2.060015e-01
2.141852e-01
2.255151e-01
1.947723e-01
2.074711e-01
2.192576e-01
2.295623e-01
2.406847e-01
1.956392e-01
2.089855e-01
2.215508e-01
2.333895e-01
2.445776e-01
2.558667e-01
3.102225e-01
2.986201e-01
2.872441e-01
2.760215e-01
2.648670e-01
2.536805e-01
2.423475e-01
2.310638e-01
2.195288e-01
2.065134e-01
1.960812e-01
1.921801e-01
1.992570e-01
2.110936e-01
2.236224e-01
2.359746e-01
2.479558e-01
2.596314e-01
2.711684e-01
1.914147e-01
1.946977e-01
2.055507e-01
2.149267e-01
2.262501e-01
2.383759e-01
2.506286e-01
2.627754e-01
2.748132e-01
2.867161e-01
1.985370e-01
2.091450e-01
2.195700e-01
2.297408e-01
2.411036e-01
2.531476e-01
2.654200e-01
2.777282e-01
2.900767e-01
3.027600e-01
3.167233e-01
1.928660e-01
2.035018e-01
2.131422e-01
2.235748e-01
2.338154e-01
2.441461e-01
2.557882e-01
2.679158e-01
2.802736e-01
2.926998e-01
3.051383e-01
3.177770e-01
3.293098e-01
1.938099e-01
2.056749e-01
2.160035e-01
2.273353e-01
2.381090e-01
2.481570e-01
2.581365e-01
2.704728e-01
2.826355e-01
2.951546e-01
3.076614e-01
3.200928e-01
3.330808e-01
3.432067e-01
1.881627e-01
1.957577e-01
2.068594e-01
2.192743e-01
2.283184e-01
2.422069e-01
2.529528e-01
2.627128e-01
2.712579e-01
2.857023e-01
2.971711e-01
3.101260e-01
3.225958e-01
3.346519e-01
3.498669e-01
3.572042e-01
3.290970e-01
3.167116e-01
3.050039e-01
2.937462e-01
2.826047e-01
2.714274e-01
2.601353e-01
2.487278e-01
2.370697e-01
2.248646e-01
2.127115e-01
1.987750e-01
4.990858e-01
4.996806e-01
4.969046e-01
4.985292e-01
4.995965e-01
4.935191e-01
4.962082e-01
4.982044e-01
4.995172e-01
4.849098e-01
4.891372e-01
4.927099e-01
4.956583e-01
4.979385e-01
4.994459e-01
4.684162e-01
4.778086e-01
4.834602e-01
4.880138e-01
4.918876e-01
4.951285e-01
4.976693e-01
4.993685e-01
4.714485e-01
4.769580e-01
4.821529e-01
4.868633e-01
4.910111e-01
4.945364e-01
4.973400e-01
4.992598e-01
4.579258e-01
4.635505e-01
4.692884e-01
4.751229e-01
4.805826e-01
4.855618e-01
4.899881e-01
4.937829e-01
4.968442e-01
4.990396e-01
4.995985e-01
4.459119e-01
4.535972e-01
4.603867e-01
4.668818e-01
4.730577e-01
4.788011e-01
4.840448e-01
4.887186e-01
4.927254e-01
4.959132e-01
4.980634e-01
4.994634e-01
4.237606e-01
4.337339e-01
4.424860e-01
4.502624e-01
4.574979e-01
4.643468e-01
4.707888e-01
4.767721e-01
4.822423e-01
4.871337e-01
4.913618e-01
4.948283e-01
4.975176e-01
4.993269e-01
3.964889e-01
4.103011e-01
4.212061e-01
4.307539e-01
4.392026e-01
4.470800e-01
3.479670e-01
3.346762e-01
3.225082e-01
3.113604e-01
3.003554e-01
2.892630e-01
2.780169e-01
2.665945e-01
2.549349e-01
2.429353e-01
2.306510e-01
2.177900e-01
2.049426e-01
4.545515e-01
4.616207e-01
4.682587e-01
4.744309e-01
4.800872e-01
4.851964e-01
4.897428e-01
4.936875e-01
4.969882e-01
4.991651e-01
1.943923e-01
2.080864e-01
2.220591e-01
2.363744e-01
2.510370e-01
2.660217e-01
2.812753e-01
2.967227e-01
3.122735e-01
3.278550e-01
3.434891e-01
3.591433e-01
3.746904e-01
3.902570e-01
4.052907e-01
4.195248e-01
4.327418e-01
4.455615e-01
4.585503e-01
4.675113e-01
4.759159e-01
4.850959e-01
4.915909e-01
4.965170e-01
3.838520e-01
3.985882e-01
4.087614e-01
4.188451e-01
4.274601e-01
4.357642e-01
4.437845e-01
4.514206e-01
4.586186e-01
4.653972e-01
4.717029e-01
4.774585e-01
4.827761e-01
4.877097e-01
4.920426e-01
4.966324e-01
4.987034e-01
1.950477e-01
2.093399e-01
2.239069e-01
2.387722e-01
2.539394e-01
2.693870e-01
2.850687e-01
3.009226e-01
3.168824e-01
3.328911e-01
3.488846e-01
3.647648e-01
3.804247e-01
3.957120e-01
4.104178e-01
4.244126e-01
4.376194e-01
4.500246e-01
4.611467e-01
4.709631e-01
4.797365e-01
4.874602e-01
4.935798e-01
4.980012e-01
1.957363e-01
2.106625e-01
2.258257e-01
2.412656e-01
2.569829e-01
2.729477e-01
2.891087e-01
3.054019e-01
3.217550e-01
3.380870e-01
3.543008e-01
3.702822e-01
3.859023e-01
4.010206e-01
4.155036e-01
4.292351e-01
4.420992e-01
4.539490e-01
4.646478e-01
4.741888e-01
4.825194e-01
4.895223e-01
4.949768e-01
4.986266e-01
1.964568e-01
2.120272e-01
2.278477e-01
2.439368e-01
2.602661e-01
2.767872e-01
2.934391e-01
3.101507e-01
3.268401e-01
3.664183e-01
3.523260e-01
3.392762e-01
3.286975e-01
3.180421e-01
3.071427e-01
2.960003e-01
2.846259e-01
2.730125e-01
2.611261e-01
2.489481e-01
2.363952e-01
2.234427e-01
2.093603e-01
1.988382e-01
3.434131e-01
3.597631e-01
3.757722e-01
3.913136e-01
4.062593e-01
4.204887e-01
4.338855e-01
4.463314e-01
4.577176e-01
4.679669e-01
4.770158e-01
4.847728e-01
4.911224e-01
4.959101e-01
4.989440e-01
1.971066e-01
2.134674e-01
2.300912e-01
2.469252e-01
2.639121e-01
2.809943e-01
2.981103e-01
3.151902e-01
3.321499e-01
3.488940e-01
3.653185e-01
3.813067e-01
3.967288e-01
4.114565e-01
4.253774e-01
4.383857e-01
4.503791e-01
4.612727e-01
4.709992e-01
4.794821e-01
4.866333e-01
4.923611e-01
4.965634e-01
4.991361e-01
1.979469e-01
2.152914e-01
2.328249e-01
2.504407e-01
2.680712e-01
2.856678e-01
3.031810e-01
3.205531e-01
3.377053e-01
3.545554e-01
3.710106e-01
3.869414e-01
4.021987e-01
4.166438e-01
4.301915e-01
4.427543e-01
4.542476e-01
4.646010e-01
4.737606e-01
4.816475e-01
4.881967e-01
4.933537e-01
4.970587e-01
4.992729e-01
1.993468e-01
2.178422e-01
2.363348e-01
2.546895e-01
2.728833e-01
2.909039e-01
3.086934e-01
3.262431e-01
3.434873e-01
3.604110e-01
3.768926e-01
3.927405e-01
4.077891e-01
4.218551e-01
4.349468e-01
4.469859e-01
4.579478e-01
4.677328e-01
4.762989e-01
4.835624e-01
4.895350e-01
4.941936e-01
4.974767e-01
4.993894e-01
2.013409e-01
2.214264e-01
2.409132e-01
2.597774e-01
2.784935e-01
2.968549e-01
3.146219e-01
3.321253e-01
3.493487e-01
3.665623e-01
3.830503e-01
3.987667e-01
4.136386e-01
4.271409e-01
4.396114e-01
4.509730e-01
4.615689e-01
4.707704e-01
4.786517e-01
4.852039e-01
4.906885e-01
4.949721e-01
3.841297e-01
3.700424e-01
3.542463e-01
3.456389e-01
3.356090e-01
3.250123e-01
3.140428e-01
3.027670e-01
2.912331e-01
2.794585e-01
2.674313e-01
2.551178e-01
2.425179e-01
2.297453e-01
2.178821e-01
2.049872e-01
4.978946e-01
4.995111e-01
2.057137e-01
2.278296e-01
2.460560e-01
2.656226e-01
2.853512e-01
3.040910e-01
3.206964e-01
3.359359e-01
3.557877e-01
3.734157e-01
3.894750e-01
4.048879e-01
4.204656e-01
4.328960e-01
4.433628e-01
4.544719e-01
4.657130e-01
4.741147e-01
4.803978e-01
4.864520e-01
4.916600e-01
4.958678e-01
4.984614e-01
4.996054e-01
4.995966e-01
4.994082e-01
4.982288e-01
4.996250e-01
4.989745e-01
4.975835e-01
4.957741e-01
4.994132e-01
4.982342e-01
4.966887e-01
4.945959e-01
4.921745e-01
4.989865e-01
4.975336e-01
4.955886e-01
4.932190e-01
4.904276e-01
4.873556e-01
4.994516e-01
4.979067e-01
4.965548e-01
4.943872e-01
4.916782e-01
4.885401e-01
4.850467e-01
4.812645e-01
4.740040e-01
4.992493e-01
4.976399e-01
4.954404e-01
4.930255e-01
4.900223e-01
4.865266e-01
4.826415e-01
4.784583e-01
4.658265e-01
4.996094e-01
4.988514e-01
4.970901e-01
4.946165e-01
4.916465e-01
4.882849e-01
4.844288e-01
4.801386e-01
4.755268e-01
4.707215e-01
4.567813e-01
4.993858e-01
4.981294e-01
4.963014e-01
4.936485e-01
4.903483e-01
4.865482e-01
4.822986e-01
4.775968e-01
4.725063e-01
4.671997e-01
4.618909e-01
4.989832e-01
4.974804e-01
4.953353e-01
4.925112e-01
4.889703e-01
4.848291e-01
4.801816e-01
4.750710e-01
4.695291e-01
4.635897e-01
4.576338e-01
4.519527e-01
4.463519e-01
4.339736e-01
4.995247e-01
4.980952e-01
4.966715e-01
4.943485e-01
4.912731e-01
4.874949e-01
4.830668e-01
4.780785e-01
4.725842e-01
4.666286e-01
4.602637e-01
4.532184e-01
4.467878e-01
4.410140e-01
3.882324e-01
4.009174e-01
4.993592e-01
4.980466e-01
4.959333e-01
4.933658e-01
4.900376e-01
4.859789e-01
4.812563e-01
4.759535e-01
4.701386e-01
4.637952e-01
4.570144e-01
4.500335e-01
4.405139e-01
4.348843e-01
4.298445e-01
4.174148e-01
1.810000e-01
1.810000e-01
1.810000e-01
1.810000e-01
1.810000e-01
1.810000e-01
1.810000e-01
1.810000e-01
1.810000e-01
1.810000e-01
1.810000e-01
1.810000e-01
1.810000e-01
1.810000e-01
1.810000e-01
1.810000e-01
1.810000e-01
1.810000e-01
1.810000e-01
1.810000e-01
1.810000e-01
1.810000e-01
1.810000e-01
1.810000e-01
1.810000e-01
1.810000e-01
1.810000e-01
1.810000e-01
1.810000e-01
1.810000e-01
1.810000e-01
1.810000e-01
1.810000e-01
1.810000e-01
1.810000e-01
1.810000e-01
1.810000e-01
1.810000e-01
1.810000e-01
1.810000e-01
1.810000e-01
1.810000e-01
1.810000e-01
1.810000e-01
1.810000e-01
1.810000e-01
1.810000e-01
1.810000e-01
1.810000e-01
1.810000e-01
1.810000e-01
1.810000e-01
1.810000e-01
1.810000e-01
1.810000e-01
1.810000e-01
1.810000e-01
1.810000e-01
1.810000e-01
1.810000e-01
1.810000e-01
1.810000e-01
1.810000e-01
1.810000e-01
1.810000e-01
1.810000e-01
1.810000e-01
1.810000e-01
1.810000e-01
1.810000e-01
1.810000e-01
1.810000e-01
1.810000e-01
1.810000e-01
1.810000e-01
1.810000e-01
1.810000e-01
1.810000e-01
1.810000e-01
1.810000e-01
1.810000e-01
1.810000e-01
1.810000e-01
1.810000e-01
1.810000e-01
1.810000e-01
1.810000e-01
1.810000e-01
1.810000e-01
1.810000e-01
1.810000e-01
1.810000e-01
1.810000e-01
1.810000e-01
1.810000e-01
1.810000e-01
1.810000e-01
1.810000e-01
1.810000e-01
1.810000e-01
1.810000e-01
1.810000e-01
1.810000e-01
1.810000e-01
1.810000e-01
1.810000e-01
1.810000e-01
1.810000e-01
1.810000e-01
1.810000e-01
1.810000e-01
1.810000e-01
1.810000e-01
1.810000e-01
1.810000e-01
1.810000e-01
1.810000e-01
1.810000e-01
1.810000e-01
1.810000e-01
1.810000e-01
1.810000e-01
1.810000e-01
1.810000e-01
1.810000e-01
1.810000e-01
1.810000e-01
1.810000e-01
1.810000e-01
1.810000e-01
1.810000e-01
1.810000e-01
1.810000e-01
1.810000e-01
1.810000e-01
1.810000e-01
1.810000e-01
1.810000e-01
1.810000e-01
1.810000e-01
1.810000e-01
1.810000e-01
1.810000e-01
1.810000e-01
1.810000e-01
1.810000e-01
1.810000e-01
1.810000e-01
1.810000e-01
1.810000e-01
1.810000e-01
1.810000e-01
1.810000e-01
1.810000e-01
1.810000e-01
1.810000e-01
1.810000e-01
1.810000e-01
1.810000e-01
1.810000e-01
1.810000e-01
1.810000e-01
1.810000e-01
1.810000e-01
1.810000e-01
1.810000e-01
1.810000e-01
1.810000e-01
1.810000e-01
1.810000e-01
1.810000e-01
1.810000e-01
1.810000e-01
1.810000e-01
1.810000e-01
1.810000e-01
1.810000e-01
1.810000e-01
1.810000e-01
1.810000e-01
1.810000e-01
1.810000e-01
1.810000e-01
1.810000e-01
1.810000e-01
1.810000e-01
1.810000e-01
1.810000e-01
1.810000e-01
1.810000e-01
1.810000e-01
1.810000e-01
1.810000e-01
1.810000e-01
1.810000e-01
1.810000e-01
1.810000e-01
1.810000e-01
1.810000e-01
1.810000e-01
1.810000e-01
1.810000e-01
1.810000e-01
1.810000e-01
1.810000e-01
1.810000e-01
1.810000e-01
1.810000e-01
1.810000e-01
1.810000e-01
1.810000e-01
1.810000e-01
1.810000e-01
1.810000e-01
1.810000e-01
1.810000e-01
1.810000e-01
1.810000e-01
1.810000e-01
1.810000e-01
1.810000e-01
1.810000e-01
1.810000e-01
1.810000e-01
1.810000e-01
1.810000e-01
1.810000e-01
1.810000e-01
1.810000e-01
1.810000e-01
1.810000e-01
1.810000e-01
1.810000e-01
1.810000e-01
1.810000e-01
1.810000e-01
1.810000e-01
1.810000e-01
1.810000e-01
1.810000e-01
1.810000e-01
1.810000e-01
1.810000e-01
1.810000e-01
1.810000e-01
1.810000e-01
1.810000e-01
1.810000e-01
1.810000e-01
1.810000e-01
1.810000e-01
1.810000e-01
1.810000e-01
1.810000e-01
1.810000e-01
1.810000e-01
1.810000e-01
1.810000e-01
1.810000e-01
1.810000e-01
1.810000e-01
1.810000e-01
1.810000e-01
1.810000e-01
1.810000e-01
1.810000e-01
1.810000e-01
1.810000e-01
1.810000e-01
1.810000e-01
1.810000e-01
1.810000e-01
1.810000e-01
1.810000e-01
1.810000e-01
1.810000e-01
1.810000e-01
1.810000e-01
1.810000e-01
1.810000e-01
1.810000e-01
1.810000e-01
1.810000e-01
1.810000e-01
1.810000e-01
1.810000e-01
1.810000e-01
1.810000e-01
1.810000e-01
1.810000e-01
1.810000e-01
1.810000e-01
1.810000e-01
1.810000e-01
1.810000e-01
1.810000e-01
1.810000e-01
1.810000e-01
1.810000e-01
1.810000e-01
1.810000e-01
1.810000e-01
1.810000e-01
1.810000e-01
1.810000e-01
1.810000e-01
1.810000e-01
1.810000e-01
1.810000e-01
1.810000e-01
1.810000e-01
1.810000e-01
1.810000e-01
1.810000e-01
1.810000e-01
1.810000e-01
1.810000e-01
1.810000e-01
1.810000e-01
1.810000e-01
1.810000e-01
1.810000e-01
1.810000e-01
1.810000e-01
1.810000e-01
1.810000e-01
1.810000e-01
1.810000e-01
1.810000e-01
1.810000e-01
1.810000e-01
1.810000e-01
1.810000e-01
1.810000e-01
1.810000e-01
1.810000e-01
1.810000e-01
1.810000e-01
1.810000e-01
1.810000e-01
1.810000e-01
1.810000e-01
1.810000e-01
1.810000e-01
1.810000e-01
1.810000e-01
1.810000e-01
1.810000e-01
1.810000e-01
1.810000e-01
1.810000e-01
1.810000e-01
1.810000e-01
1.810000e-01
1.810000e-01
1.810000e-01
1.810000e-01
1.810000e-01
1.810000e-01
1.810000e-01
1.810000e-01
1.810000e-01
1.810000e-01
1.810000e-01
1.810000e-01
1.810000e-01
1.810000e-01
1.810000e-01
1.810000e-01
1.810000e-01
3.310000e-01
3.310000e-01
3.310000e-01
3.310000e-01
3.310000e-01
3.310000e-01
3.310000e-01
3.310000e-01
3.310000e-01
3.310000e-01
3.310000e-01
3.310000e-01
3.310000e-01
3.310000e-01
3.310000e-01
3.310000e-01
3.310000e-01
3.310000e-01
3.310000e-01
3.310000e-01
3.310000e-01
3.310000e-01
3.310000e-01
3.310000e-01
3.310000e-01
3.310000e-01
3.310000e-01
3.310000e-01
3.310000e-01
3.310000e-01
3.310000e-01
3.310000e-01
3.310000e-01
2.873833e-01
2.811940e-01
2.974614e-01
2.859761e-01
2.904603e-01
2.780449e-01
2.768719e-01
2.718225e-01
2.674952e-01
2.852951e-01
2.782218e-01
2.723548e-01
2.823169e-01
2.705349e-01
2.788403e-01
2.022246e-01
3.293960e-01
3.268396e-01
3.212687e-01
3.236901e-01
3.218575e-01
3.169587e-01
3.219888e-01
3.187678e-01
3.154805e-01
3.157547e-01
3.118021e-01
3.076597e-01
3.116970e-01
3.075679e-01
3.034640e-01
2.986820e-01
3.267923e-01
3.069851e-01
3.024981e-01
2.979333e-01
2.951535e-01
2.887103e-01
2.830539e-01
2.882151e-01
2.769401e-01
3.025634e-01
2.932543e-01
3.297241e-01
2.823725e-01
2.692925e-01
2.773813e-01
2.715746e-01
2.655910e-01
2.607641e-01
2.580884e-01
2.636686e-01
2.576673e-01
2.527611e-01
2.489332e-01
2.551330e-01
2.479770e-01
2.435915e-01
2.394647e-01
2.368092e-01
2.333315e-01
2.294998e-01
2.224060e-01
2.189008e-01
2.065617e-01
2.476779e-01
2.320776e-01
2.191217e-01
2.086276e-01
1.962723e-01
3.212033e-01
3.169450e-01
3.303498e-01
3.280883e-01
3.293779e-01
3.245406e-01
3.263145e-01
3.222112e-01
3.174211e-01
3.226665e-01
3.261274e-01
3.292340e-01
2.255077e-01
2.134989e-01
1.975535e-01
2.246486e-01
2.087762e-01
1.922934e-01
3.208786e-01
3.166196e-01
3.302613e-01
3.279071e-01
3.292189e-01
3.243406e-01
3.260672e-01
3.218874e-01
3.170480e-01
2.245862e-01
2.129421e-01
1.980276e-01
2.254437e-01
2.092445e-01
1.924038e-01
3.301909e-01
3.277067e-01
3.289833e-01
3.240398e-01
3.256680e-01
3.215071e-01
3.169288e-01
2.261063e-01
2.138127e-01
1.979652e-01
3.299685e-01
3.267789e-01
3.235680e-01
3.211688e-01
3.182614e-01
3.170061e-01
3.097183e-01
2.254264e-01
2.106247e-01
1.933553e-01
2.508871e-01
2.373350e-01
2.227810e-01
2.055146e-01
1.921834e-01
3.214133e-01
3.172925e-01
3.302869e-01
3.279509e-01
3.292238e-01
3.243344e-01
3.260928e-01
3.217918e-01
3.169705e-01
2.275928e-01
2.152257e-01
1.990503e-01
2.251170e-01
2.097476e-01
3.082953e-01
3.156981e-01
3.206965e-01
3.246141e-01
1.927615e-01
3.302100e-01
3.279024e-01
3.246092e-01
2.272763e-01
2.149182e-01
1.980109e-01
3.190460e-01
3.143584e-01
3.299502e-01
3.271913e-01
3.287043e-01
3.232521e-01
3.249021e-01
3.180720e-01
3.198208e-01
3.115953e-01
3.142688e-01
2.463273e-01
2.336644e-01
2.207988e-01
2.082876e-01
1.946697e-01
2.207639e-01
2.060543e-01
1.912398e-01
3.299166e-01
3.269073e-01
3.282613e-01
3.226632e-01
3.245550e-01
3.201477e-01
3.152417e-01
2.971207e-01
2.227749e-01
2.117449e-01
1.965743e-01
3.303995e-01
3.273522e-01
3.232022e-01
3.202368e-01
3.171761e-01
3.157686e-01
3.078692e-01
2.238078e-01
2.088321e-01
1.925576e-01
2.484920e-01
2.353117e-01
2.212426e-01
2.045042e-01
1.916519e-01
3.198717e-01
3.153842e-01
3.300540e-01
3.274034e-01
3.288925e-01
3.235439e-01
3.253356e-01
3.205613e-01
3.153522e-01
2.256900e-01
2.136820e-01
1.981192e-01
2.225080e-01
2.079575e-01
1.919706e-01
3.200781e-01
3.156691e-01
3.300608e-01
2.882858e-01
3.273262e-01
3.288639e-01
3.233426e-01
3.253785e-01
3.209021e-01
3.158161e-01
2.235605e-01
2.115990e-01
1.965963e-01
2.212948e-01
2.069738e-01
1.915089e-01
3.300038e-01
3.271455e-01
3.284585e-01
3.231600e-01
3.244906e-01
3.192853e-01
3.140300e-01
2.222921e-01
2.111020e-01
1.959853e-01
3.297646e-01
3.275335e-01
3.245776e-01
3.182824e-01
3.191237e-01
3.135180e-01
3.099311e-01
2.217438e-01
2.070243e-01
1.915457e-01
2.514634e-01
2.385955e-01
2.205538e-01
2.072955e-01
1.950174e-01
3.298805e-01
3.265357e-01
3.273274e-01
3.061132e-01
3.132648e-01
3.186905e-01
3.227767e-01
3.254051e-01
3.286837e-01
3.218544e-01
3.231118e-01
3.179151e-01
3.125460e-01
2.215636e-01
2.103522e-01
1.960894e-01
3.298631e-01
3.253719e-01
3.184242e-01
3.134673e-01
3.071701e-01
2.217952e-01
2.070351e-01
1.914903e-01
1.946449e-01
3.231550e-01
3.205790e-01
3.162674e-01
3.157770e-01
3.087717e-01
3.071745e-01
3.092639e-01
3.015419e-01
2.928476e-01
2.960871e-01
2.998868e-01
3.020658e-01
2.844433e-01
2.891407e-01
2.933101e-01
2.919289e-01
2.645850e-01
2.552071e-01
2.481055e-01
2.408821e-01
2.326249e-01
2.227986e-01
2.123536e-01
2.048889e-01
1.954023e-01
2.112133e-01
2.164170e-01
2.257851e-01
2.266363e-01
2.418795e-01
2.382052e-01
2.353153e-01
2.516619e-01
2.475489e-01
2.441102e-01
2.519391e-01
2.646707e-01
2.597853e-01
2.555721e-01
2.764015e-01
2.718508e-01
2.667725e-01
2.627720e-01
2.594490e-01
2.851379e-01
2.672895e-01
2.752415e-01
2.788487e-01
3.274474e-01
1.940374e-01
3.295879e-01
3.293663e-01
3.278624e-01
3.253293e-01
3.303359e-01
3.200446e-01
3.176584e-01
3.143948e-01
2.894047e-01
2.958633e-01
3.040054e-01
3.111640e-01
3.169497e-01
3.214219e-01
3.249356e-01
3.281909e-01
3.303910e-01
3.289710e-01
3.264981e-01
3.227613e-01
3.023833e-01
3.301383e-01
3.282796e-01
3.255952e-01
3.216610e-01
3.170677e-01
3.126539e-01
3.081128e-01
3.306094e-01
3.296256e-01
3.270120e-01
3.250216e-01
3.201240e-01
3.151310e-01
3.105615e-01
3.068181e-01
2.994948e-01
2.927423e-01
1.990282e-01
1.907251e-01
2.244759e-01
2.161859e-01
2.054409e-01
1.954768e-01
2.266052e-01
2.131861e-01
2.597018e-01
2.542186e-01
2.449167e-01
2.321407e-01
2.212363e-01
2.108463e-01
2.006819e-01
1.922360e-01
2.447510e-01
2.350047e-01
3.192480e-01
3.127597e-01
3.056514e-01
2.967042e-01
2.862191e-01
2.742294e-01
2.613977e-01
3.302865e-01
3.285912e-01
3.248046e-01
3.190490e-01
3.118038e-01
3.024848e-01
2.926797e-01
2.818390e-01
2.704794e-01
2.606966e-01
2.492621e-01
2.387217e-01
2.268315e-01
2.114063e-01
1.977462e-01
2.722039e-01
2.651470e-01
2.564841e-01
2.461681e-01
2.357146e-01
2.255407e-01
2.153940e-01
2.054781e-01
1.955802e-01
1.915966e-01
3.078488e-01
3.005951e-01
2.909365e-01
2.793741e-01
2.136590e-01
2.082370e-01
1.959849e-01
2.642982e-01
2.509599e-01
2.370523e-01
2.226006e-01
2.080253e-01
1.956735e-01
3.189987e-01
3.124818e-01
3.051290e-01
2.956855e-01
2.851266e-01
2.736062e-01
2.612797e-01
2.478746e-01
2.351539e-01
2.217649e-01
3.301151e-01
3.283957e-01
3.246740e-01
3.195547e-01
3.120364e-01
3.009862e-01
2.906366e-01
2.794014e-01
2.675936e-01
2.564840e-01
3.301117e-01
3.274097e-01
3.236220e-01