VARIABLES = "X" "Y" "Z" "FREF"
ZONE T="instant 034"
Nodes=3151, Elements=6298
ZONETYPE=FETriangle
DATAPACKING=BLOCK
VARLOCATION = ([1-3]=NODAL, [4]=CELLCENTERED)
5.000000e-01
1.283588e-01
1.462985e-01
1.634922e-01
1.801471e-01
1.995809e-01
2.207764e-01
2.434826e-01
2.676956e-01
2.929204e-01
3.184257e-01
3.429475e-01
3.662445e-01
3.885745e-01
4.090032e-01
4.266236e-01
4.411590e-01
4.521640e-01
4.620334e-01
4.720025e-01
4.805941e-01
4.874399e-01
4.925312e-01
4.962204e-01
4.985533e-01
4.997258e-01
1.134000e-01
1.134000e-01
1.134000e-01
1.134000e-01
1.134000e-01
1.134000e-01
1.134000e-01
1.134000e-01
1.134000e-01
1.134000e-01
1.134000e-01
1.134000e-01
2.627661e-01
2.612278e-01
2.579014e-01
2.527041e-01
2.465971e-01
2.416512e-01
2.352436e-01
2.272292e-01
2.187995e-01
2.107987e-01
2.019843e-01
1.922135e-01
1.834930e-01
1.753763e-01
1.671475e-01
1.573101e-01
1.477466e-01
1.402598e-01
1.317600e-01
1.227001e-01
2.634000e-01
4.792544e-01
4.528326e-01
4.303420e-01
4.077149e-01
3.809906e-01
3.550040e-01
3.331060e-01
3.128734e-01
2.934966e-01
2.768179e-01
3.181556e-01
1.529525e-01
1.423811e-01
3.313602e-01
3.096468e-01
1.571311e-01
1.674790e-01
1.490339e-01
1.708254e-01
1.314143e-01
1.721452e-01
1.583928e-01
1.763988e-01
1.893640e-01
4.811961e-01
2.036782e-01
2.225706e-01
1.962869e-01
2.093609e-01
2.576328e-01
2.734144e-01
3.101021e-01
2.895348e-01
2.941662e-01
3.229412e-01
3.424584e-01
3.185997e-01
4.725934e-01
4.588199e-01
3.325851e-01
3.563977e-01
3.493494e-01
3.725719e-01
3.700384e-01
3.822919e-01
2.761069e-01
3.053486e-01
2.909328e-01
2.707003e-01
1.504284e-01
1.360173e-01
1.284440e-01
1.295837e-01
1.293602e-01
1.456017e-01
1.618561e-01
1.300222e-01
1.463457e-01
1.629743e-01
1.809334e-01
1.227460e-01
1.337205e-01
1.480460e-01
1.643580e-01
4.771359e-01
1.817160e-01
2.006726e-01
2.009839e-01
2.215732e-01
2.031600e-01
2.207369e-01
2.431055e-01
1.300553e-01
1.473927e-01
1.649068e-01
1.835302e-01
1.777636e-01
1.761397e-01
1.866173e-01
1.963984e-01
2.183394e-01
2.359454e-01
2.481066e-01
2.651921e-01
1.279374e-01
1.444313e-01
1.623647e-01
1.827158e-01
2.004455e-01
2.169439e-01
2.371960e-01
2.196910e-01
2.339436e-01
2.393271e-01
2.552165e-01
2.723698e-01
2.933948e-01
1.940489e-01
2.087422e-01
2.244404e-01
2.566290e-01
4.698295e-01
4.556331e-01
4.438349e-01
4.299265e-01
2.757133e-01
2.955864e-01
3.181040e-01
2.005831e-01
2.403663e-01
2.581663e-01
2.782572e-01
2.968944e-01
3.177295e-01
3.410249e-01
2.159848e-01
2.326282e-01
2.513461e-01
2.611149e-01
2.805858e-01
3.034780e-01
4.620888e-01
4.455859e-01
4.309588e-01
4.168675e-01
4.008561e-01
3.171123e-01
3.381758e-01
3.623200e-01
2.773107e-01
3.007493e-01
3.312648e-01
3.562938e-01
3.819609e-01
2.205628e-01
2.370078e-01
2.551725e-01
2.759082e-01
3.247817e-01
3.496768e-01
3.747126e-01
4.002825e-01
2.984454e-01
3.214766e-01
3.444220e-01
3.684958e-01
3.924156e-01
4.171269e-01
3.982986e-01
4.160919e-01
2.387247e-01
2.560490e-01
2.754825e-01
2.972261e-01
3.206084e-01
3.433709e-01
3.628093e-01
3.878071e-01
4.090260e-01
4.331568e-01
3.422846e-01
3.533880e-01
4.533868e-01
4.360713e-01
4.204437e-01
4.057732e-01
3.912588e-01
3.768752e-01
3.618147e-01
3.666251e-01
3.810145e-01
3.955249e-01
4.096113e-01
4.260368e-01
4.436980e-01
1.134000e-01
4.996174e-01
4.976247e-01
4.941284e-01
4.891037e-01
4.811448e-01
4.717501e-01
4.598596e-01
4.453383e-01
4.268088e-01
4.068915e-01
3.884703e-01
3.681483e-01
3.456004e-01
3.221345e-01
3.019903e-01
2.849513e-01
2.677316e-01
2.485237e-01
2.283150e-01
2.084893e-01
1.894914e-01
1.714430e-01
1.546307e-01
1.392040e-01
1.253447e-01
5.000000e-01
2.768867e-01
2.939591e-01
3.142191e-01
3.374208e-01
3.600860e-01
3.825055e-01
4.057756e-01
4.319405e-01
4.591720e-01
4.824398e-01
2.634000e-01
1.221288e-01
1.309717e-01
1.411999e-01
1.527394e-01
1.630157e-01
1.728763e-01
1.829595e-01
1.929206e-01
2.018135e-01
2.089055e-01
2.175689e-01
2.256398e-01
2.320948e-01
2.374394e-01
2.425293e-01
2.489219e-01
2.537811e-01
2.566587e-01
2.590809e-01
2.613757e-01
2.629226e-01
1.134000e-01
1.134000e-01
1.134000e-01
1.134000e-01
1.134000e-01
1.134000e-01
1.134000e-01
1.134000e-01
1.134000e-01
1.134000e-01
1.134000e-01
3.151491e-01
3.541137e-01
1.505551e-01
1.799037e-01
1.731869e-01
2.759493e-01
2.845200e-01
2.990020e-01
2.998964e-01
3.239145e-01
3.245807e-01
3.341290e-01
3.150410e-01
3.920154e-01
1.272994e-01
3.696413e-01
3.448983e-01
3.768115e-01
3.269424e-01
3.639918e-01
3.472972e-01
3.858820e-01
3.693763e-01
1.320726e-01
1.741963e-01
1.531765e-01
1.426531e-01
1.308820e-01
1.717061e-01
2.003838e-01
1.672674e-01
2.028677e-01
1.896664e-01
2.168460e-01
2.026824e-01
2.297416e-01
2.455961e-01
1.355075e-01
2.784336e-01
1.304871e-01
1.397745e-01
1.543812e-01
2.684719e-01
2.851782e-01
3.004105e-01
4.744453e-01
4.478390e-01
4.622954e-01
4.726961e-01
4.109892e-01
4.232150e-01
4.350279e-01
4.471540e-01
1.583244e-01
1.460731e-01
1.293761e-01
4.624697e-01
4.085119e-01
4.199896e-01
4.324383e-01
4.543737e-01
3.931200e-01
3.981192e-01
4.310212e-01
4.429808e-01
2.690986e-01
2.790141e-01
2.915818e-01
3.755597e-01
3.945188e-01
4.224701e-01
3.476939e-01
3.730575e-01
3.820112e-01
3.934717e-01
4.031379e-01
4.094547e-01
4.154155e-01
2.534340e-01
3.056737e-01
3.264166e-01
3.538257e-01
3.689532e-01
3.888793e-01
4.091973e-01
2.586787e-01
2.678156e-01
2.799626e-01
3.422249e-01
3.604940e-01
1.755403e-01
1.629544e-01
3.773352e-01
3.933189e-01
2.378435e-01
2.948063e-01
3.117039e-01
3.363005e-01
3.488850e-01
3.628283e-01
3.759908e-01
2.441846e-01
2.530899e-01
2.648137e-01
3.211016e-01
3.348073e-01
3.463943e-01
3.575710e-01
2.774100e-01
1.929653e-01
1.779685e-01
1.616941e-01
1.459137e-01
1.300603e-01
2.891750e-01
3.105453e-01
3.187611e-01
3.284255e-01
3.377938e-01
2.181073e-01
2.257394e-01
2.357845e-01
2.472445e-01
2.919549e-01
3.006598e-01
3.097231e-01
3.172221e-01
2.564999e-01
2.643827e-01
2.732964e-01
2.833437e-01
2.913947e-01
2.963646e-01
1.317954e-01
1.504740e-01
1.734631e-01
1.930630e-01
2.124893e-01
2.320485e-01
2.516847e-01
1.960373e-01
2.030560e-01
2.218539e-01
2.273797e-01
2.349222e-01
2.453267e-01
2.567830e-01
2.692193e-01
2.712876e-01
2.740231e-01
2.115311e-01
1.954201e-01
1.798208e-01
1.645497e-01
1.491506e-01
1.314143e-01
2.171902e-01
2.329949e-01
2.509551e-01
1.855146e-01
1.988494e-01
2.140517e-01
2.309752e-01
5.000000e-01
5.000000e-01
5.000000e-01
5.000000e-01
5.000000e-01
5.000000e-01
5.000000e-01
5.000000e-01
5.000000e-01
5.000000e-01
5.000000e-01
5.000000e-01
5.000000e-01
5.000000e-01
5.000000e-01
5.000000e-01
5.000000e-01
5.000000e-01
5.000000e-01
5.000000e-01
5.000000e-01
5.000000e-01
5.000000e-01
5.000000e-01
5.000000e-01
5.000000e-01
5.000000e-01
5.000000e-01
5.000000e-01
5.000000e-01
5.000000e-01
5.000000e-01
5.000000e-01
1.134000e-01
1.134000e-01
1.134000e-01
1.134000e-01
1.134000e-01
1.134000e-01
1.134000e-01
1.134000e-01
1.134000e-01
1.134000e-01
1.134000e-01
1.134000e-01
1.134000e-01
1.134000e-01
1.134000e-01
1.134000e-01
1.134000e-01
1.134000e-01
1.134000e-01
1.134000e-01
1.134000e-01
1.134000e-01
1.134000e-01
1.134000e-01
1.134000e-01
1.134000e-01
1.134000e-01
1.134000e-01
1.134000e-01
1.134000e-01
1.134000e-01
1.134000e-01
1.134000e-01
3.345832e-01
3.484896e-01
3.427695e-01
3.561138e-01
3.699756e-01
3.914053e-01
3.671154e-01
3.774103e-01
2.882128e-01
3.003637e-01
3.109266e-01
3.118275e-01
3.218850e-01
3.296687e-01
3.366530e-01
3.676532e-01
3.459420e-01
3.341447e-01
3.552868e-01
3.761938e-01
3.235807e-01
3.235926e-01
1.340174e-01
1.256837e-01
3.420202e-01
3.630858e-01
3.840282e-01
3.623847e-01
3.759905e-01
3.896926e-01
3.817306e-01
3.941900e-01
3.993950e-01
4.229896e-01
3.750090e-01
3.902058e-01
3.670725e-01
3.977698e-01
3.777595e-01
3.570631e-01
4.045965e-01
3.851848e-01
3.674445e-01
3.491042e-01
4.022758e-01
4.169558e-01
4.132947e-01
3.981684e-01
3.860932e-01
1.516557e-01
1.407813e-01
1.285574e-01
3.412601e-01
3.546704e-01
3.660545e-01
3.310395e-01
3.438288e-01
3.205986e-01
1.267356e-01
1.370993e-01
1.397179e-01
1.504778e-01
1.539590e-01
1.629292e-01
1.661403e-01
1.699418e-01
1.705839e-01
1.781037e-01
1.829029e-01
1.872916e-01
1.883227e-01
1.954597e-01
2.009696e-01
2.058823e-01
1.995483e-01
2.074005e-01
2.142659e-01
2.201141e-01
2.254021e-01
2.124114e-01
2.199287e-01
2.274048e-01
2.341459e-01
2.401028e-01
2.455873e-01
2.248311e-01
1.694529e-01
1.577358e-01
1.457935e-01
1.338923e-01
1.267575e-01
2.329313e-01
2.407620e-01
2.481133e-01
2.547519e-01
2.606057e-01
2.660882e-01
2.452512e-01
2.541008e-01
2.620729e-01
2.693149e-01
2.758371e-01
2.812076e-01
2.864792e-01
2.571167e-01
2.668994e-01
2.759897e-01
2.836789e-01
2.907688e-01
2.974074e-01
3.011673e-01
3.062936e-01
2.685711e-01
2.789276e-01
2.891242e-01
2.986613e-01
3.049057e-01
3.122716e-01
3.209454e-01
3.183991e-01
3.261004e-01
3.436448e-01
3.956316e-01
3.170249e-01
3.359144e-01
3.573715e-01
1.882395e-01
1.761764e-01
1.639596e-01
1.522517e-01
1.423833e-01
1.324055e-01
3.791334e-01
3.040049e-01
3.245669e-01
3.467324e-01
3.691411e-01
3.881720e-01
4.049464e-01
3.458335e-01
3.585542e-01
3.652174e-01
3.731087e-01
3.798126e-01
3.880093e-01
3.965343e-01
4.053161e-01
4.063933e-01
4.106190e-01
4.152700e-01
4.178588e-01
4.213643e-01
4.254747e-01
3.877279e-01
3.984302e-01
4.071816e-01
4.158364e-01
4.243105e-01
4.308174e-01
4.350592e-01
4.036825e-01
4.083983e-01
4.161692e-01
4.256471e-01
4.334212e-01
4.391010e-01
4.438130e-01
4.201255e-01
4.352615e-01
4.332017e-01
4.445965e-01
4.476835e-01
4.519542e-01
4.561702e-01
4.596888e-01
4.337236e-01
4.504381e-01
4.603866e-01
4.664508e-01
4.466530e-01
4.609480e-01
4.672567e-01
4.723958e-01
4.683393e-01
4.785281e-01
2.085027e-01
1.958617e-01
1.832153e-01
1.709878e-01
1.596162e-01
1.484964e-01
1.358970e-01
1.277239e-01
4.753121e-01
4.842018e-01
4.780205e-01
4.852902e-01
4.928860e-01
4.978460e-01
4.950942e-01
4.914623e-01
4.910153e-01
4.870784e-01
4.853973e-01
4.861305e-01
4.784258e-01
4.792925e-01
4.804106e-01
4.817949e-01
4.702142e-01
4.709525e-01
4.721999e-01
4.737908e-01
4.756310e-01
4.610067e-01
4.623808e-01
4.642022e-01
4.663444e-01
4.686833e-01
4.582216e-01
4.610762e-01
4.491381e-01
4.508588e-01
4.529435e-01
4.554463e-01
4.356937e-01
4.376058e-01
4.399040e-01
4.427999e-01
4.461720e-01
4.496319e-01
4.528776e-01
4.213031e-01
4.227834e-01
4.249879e-01
4.281750e-01
4.322766e-01
4.368507e-01
4.407163e-01
4.438391e-01
3.895091e-01
3.904151e-01
4.066604e-01
4.082031e-01
4.111673e-01
4.161940e-01
4.219291e-01
4.286362e-01
4.298398e-01
4.341523e-01
3.872140e-01
4.024688e-01
3.758751e-01
1.624461e-01
1.889764e-01
1.733043e-01
1.942213e-01
1.858700e-01
2.156020e-01
2.088313e-01
1.998670e-01
2.440152e-01
2.326569e-01
2.301336e-01
2.167669e-01
2.035620e-01
1.907346e-01
1.784489e-01
1.665030e-01
1.545506e-01
1.439976e-01
1.333491e-01
2.232786e-01
2.139911e-01
2.696090e-01
2.582467e-01
2.475019e-01
2.375615e-01
2.280577e-01
2.839665e-01
2.724215e-01
2.617406e-01
2.516822e-01
2.420522e-01
3.094420e-01
2.973321e-01
2.861591e-01
2.756901e-01
2.656931e-01
2.559988e-01
3.337560e-01
3.216995e-01
3.102969e-01
2.996512e-01
2.895262e-01
2.796563e-01
2.698925e-01
3.558503e-01
3.452757e-01
3.336921e-01
3.230748e-01
3.131006e-01
3.033935e-01
2.935826e-01
2.836610e-01
3.737730e-01
3.697046e-01
3.558758e-01
3.455300e-01
3.358447e-01
3.267966e-01
3.173707e-01
3.073232e-01
2.971410e-01
4.258809e-01
4.127302e-01
3.963054e-01
3.775631e-01
3.561667e-01
3.332606e-01
3.101049e-01
4.081515e-01
3.905420e-01
3.701002e-01
3.452836e-01
3.221825e-01
1.275467e-01
1.256843e-01
1.285158e-01
1.428632e-01
1.381101e-01
1.469114e-01
1.593619e-01
1.269989e-01
1.398419e-01
1.522391e-01
1.639506e-01
1.768650e-01
1.280876e-01
1.418179e-01
1.550744e-01
1.684031e-01
1.816479e-01
1.953448e-01
2.529447e-01
2.386875e-01
2.248815e-01
2.115293e-01
1.985869e-01
1.859826e-01
1.736292e-01
1.617937e-01
1.500752e-01
1.372264e-01
1.278429e-01
1.244725e-01
1.318245e-01
1.443056e-01
1.578076e-01
1.717946e-01
1.859089e-01
2.003178e-01
2.148190e-01
1.234411e-01
1.268817e-01
1.382357e-01
1.484231e-01
1.610440e-01
1.750290e-01
1.895905e-01
2.045798e-01
2.198741e-01
2.352720e-01
1.306489e-01
1.418513e-01
1.533095e-01
1.650819e-01
1.784689e-01
1.930600e-01
2.083297e-01
2.239934e-01
2.400954e-01
2.571864e-01
2.755751e-01
1.249209e-01
1.356830e-01
1.458722e-01
1.576282e-01
1.696798e-01
1.821695e-01
1.964483e-01
2.118153e-01
2.276482e-01
2.438282e-01
2.602683e-01
2.770557e-01
2.920448e-01
1.257046e-01
1.379349e-01
1.487157e-01
1.616492e-01
1.745650e-01
1.869262e-01
1.994688e-01
2.149993e-01
2.310430e-01
2.473150e-01
2.638487e-01
2.803212e-01
2.970992e-01
3.105662e-01
1.201573e-01
1.274646e-01
1.390225e-01
1.523270e-01
1.625874e-01
1.791753e-01
1.927534e-01
2.050955e-01
2.159434e-01
2.347407e-01
2.503867e-01
2.672344e-01
2.839682e-01
2.998620e-01
3.194655e-01
3.290409e-01
2.766481e-01
2.613367e-01
2.469193e-01
2.331645e-01
2.197988e-01
2.066940e-01
1.937982e-01
1.811759e-01
1.686906e-01
1.560655e-01
1.442599e-01
1.305929e-01
4.990253e-01
4.996612e-01
4.967234e-01
4.984371e-01
4.995723e-01
4.931094e-01
4.959894e-01
4.981074e-01
4.994939e-01
4.837360e-01
4.884146e-01
4.922917e-01
4.954376e-01
4.978460e-01
4.994246e-01
4.655507e-01
4.760097e-01
4.823475e-01
4.873190e-01
4.914804e-01
4.949165e-01
4.975821e-01
4.993479e-01
4.692359e-01
4.753674e-01
4.810859e-01
4.861867e-01
4.906139e-01
4.943304e-01
4.972543e-01
4.992384e-01
4.538879e-01
4.605326e-01
4.670541e-01
4.735461e-01
4.795201e-01
4.848843e-01
4.895868e-01
4.935705e-01
4.967513e-01
4.990117e-01
4.995837e-01
4.403322e-01
4.494234e-01
4.572572e-01
4.645941e-01
4.714434e-01
4.777049e-01
4.833337e-01
4.882835e-01
4.924786e-01
4.957828e-01
4.979771e-01
4.994345e-01
4.143209e-01
4.262812e-01
4.367829e-01
4.459187e-01
4.542366e-01
4.619549e-01
4.690811e-01
4.755879e-01
4.814462e-01
4.866139e-01
4.910281e-01
4.946097e-01
4.973944e-01
4.992890e-01
3.807888e-01
3.980378e-01
4.116507e-01
4.231983e-01
4.332925e-01
4.425234e-01
3.008638e-01
2.842809e-01
2.692316e-01
2.553423e-01
2.417975e-01
2.283930e-01
2.150955e-01
2.019145e-01
1.888293e-01
1.758098e-01
1.629159e-01
1.498130e-01
1.368633e-01
4.510975e-01
4.590485e-01
4.663804e-01
4.730850e-01
4.791353e-01
4.845298e-01
4.892832e-01
4.933863e-01
4.968267e-01
4.991182e-01
1.267376e-01
1.410919e-01
1.564652e-01
1.733097e-01
1.913387e-01
2.104922e-01
2.304500e-01
2.509538e-01
2.716949e-01
2.923952e-01
3.129654e-01
3.333606e-01
3.533981e-01
3.732593e-01
3.920554e-01
4.093709e-01
4.250983e-01
4.400412e-01
4.550453e-01
4.650246e-01
4.742999e-01
4.842933e-01
4.912117e-01
4.964153e-01
3.650958e-01
3.840170e-01
3.968011e-01
4.091522e-01
4.196136e-01
4.295401e-01
4.389279e-01
4.476721e-01
4.557595e-01
4.632511e-01
4.701009e-01
4.762601e-01
4.819004e-01
4.871050e-01
4.916443e-01
4.964437e-01
4.986186e-01
1.276146e-01
1.427761e-01
1.589737e-01
1.765588e-01
1.952769e-01
2.150226e-01
2.354871e-01
2.564197e-01
2.775584e-01
2.986906e-01
3.196494e-01
3.402562e-01
3.603407e-01
3.796572e-01
3.978634e-01
4.148113e-01
4.304833e-01
4.449520e-01
4.576507e-01
4.686416e-01
4.783389e-01
4.867225e-01
4.932816e-01
4.979561e-01
1.285001e-01
1.444777e-01
1.614808e-01
1.798182e-01
1.992503e-01
2.196307e-01
2.406477e-01
2.620532e-01
2.835972e-01
3.050538e-01
3.262097e-01
3.468527e-01
3.667660e-01
3.857256e-01
4.035457e-01
4.201125e-01
4.353409e-01
4.491061e-01
4.613046e-01
4.720106e-01
4.812217e-01
4.888519e-01
4.947182e-01
4.985817e-01
1.294039e-01
1.461959e-01
1.640448e-01
1.831974e-01
2.033933e-01
2.244389e-01
2.460165e-01
2.678741e-01
2.897596e-01
3.253274e-01
3.071779e-01
2.909960e-01
2.776439e-01
2.643069e-01
2.508461e-01
2.373200e-01
2.237917e-01
2.102883e-01
1.967920e-01
1.833682e-01
1.698510e-01
1.562832e-01
1.418058e-01
1.314285e-01
3.114356e-01
3.326754e-01
3.532571e-01
3.729653e-01
3.916090e-01
4.090421e-01
4.251552e-01
4.398533e-01
4.530634e-01
4.647608e-01
4.749358e-01
4.835374e-01
4.904870e-01
4.956609e-01
4.988933e-01
1.302320e-01
1.479723e-01
1.667987e-01
1.868595e-01
2.078597e-01
2.295676e-01
2.516686e-01
2.739144e-01
2.960575e-01
3.178671e-01
3.391221e-01
3.595970e-01
3.790750e-01
3.973763e-01
4.143774e-01
4.299871e-01
4.441353e-01
4.567814e-01
4.679057e-01
4.774740e-01
4.854373e-01
4.917411e-01
4.963139e-01
4.990810e-01
1.312106e-01
1.500853e-01
1.700131e-01
1.910312e-01
2.128246e-01
2.351398e-01
2.576783e-01
2.802103e-01
3.025139e-01
3.243981e-01
3.456416e-01
3.659842e-01
3.851953e-01
4.030960e-01
4.196026e-01
4.346542e-01
4.482150e-01
4.602600e-01
4.707693e-01
4.796989e-01
4.870285e-01
4.927431e-01
4.968097e-01
4.992165e-01
1.326873e-01
1.528736e-01
1.740000e-01
1.959451e-01
2.184533e-01
2.412865e-01
2.641013e-01
2.867466e-01
3.091059e-01
3.310992e-01
3.523530e-01
3.725264e-01
3.914317e-01
4.088410e-01
4.247574e-01
4.391585e-01
4.521201e-01
4.635545e-01
4.734162e-01
4.816675e-01
4.883897e-01
4.935961e-01
4.972356e-01
4.993354e-01
1.347822e-01
1.567530e-01
1.791130e-01
2.016873e-01
2.249326e-01
2.482418e-01
2.709113e-01
2.932495e-01
3.157340e-01
3.382209e-01
3.593980e-01
3.792791e-01
3.979622e-01
4.147239e-01
4.297984e-01
4.433602e-01
4.559801e-01
4.668114e-01
4.758863e-01
4.833441e-01
4.895639e-01
4.944030e-01
3.495213e-01
3.311905e-01
3.103572e-01
2.996559e-01
2.870792e-01
2.738229e-01
2.602523e-01
2.465383e-01
2.327702e-01
2.189821e-01
2.051638e-01
1.913289e-01
1.774876e-01
1.638219e-01
1.516643e-01
1.384057e-01
4.976767e-01
4.994642e-01
1.394140e-01
1.637367e-01
1.845409e-01
2.081362e-01
2.328317e-01
2.567465e-01
2.777504e-01
2.968439e-01
3.234309e-01
3.463044e-01
3.667363e-01
3.859536e-01
4.056497e-01
4.212313e-01
4.336825e-01
4.469911e-01
4.605320e-01
4.704817e-01
4.776604e-01
4.846004e-01
4.905548e-01
4.953695e-01
4.982913e-01
4.995625e-01
4.995193e-01
4.992706e-01
4.978869e-01
4.995475e-01
4.987224e-01
4.970668e-01
4.949354e-01
4.992672e-01
4.978603e-01
4.959655e-01
4.934686e-01
4.905698e-01
4.986696e-01
4.969537e-01
4.946360e-01
4.917758e-01
4.884219e-01
4.846897e-01
4.993295e-01
4.974073e-01
4.957341e-01
4.931463e-01
4.898963e-01
4.861042e-01
4.818605e-01
4.772094e-01
4.682217e-01
4.990818e-01
4.971170e-01
4.944751e-01
4.915194e-01
4.878858e-01
4.836500e-01
4.789120e-01
4.737628e-01
4.580167e-01
4.995261e-01
4.985776e-01
4.964588e-01
4.934845e-01
4.899120e-01
4.858152e-01
4.811150e-01
4.758664e-01
4.701751e-01
4.641777e-01
4.466393e-01
4.992695e-01
4.977646e-01
4.955318e-01
4.923359e-01
4.883621e-01
4.837585e-01
4.785647e-01
4.727904e-01
4.665034e-01
4.598648e-01
4.531394e-01
4.987766e-01
4.970113e-01
4.944443e-01
4.910259e-01
4.867445e-01
4.817208e-01
4.760453e-01
4.697550e-01
4.628805e-01
4.554802e-01
4.478807e-01
4.405459e-01
4.333899e-01
4.175555e-01
4.994518e-01
4.977798e-01
4.960875e-01
4.933322e-01
4.896390e-01
4.850610e-01
4.796705e-01
4.735642e-01
4.667978e-01
4.593941e-01
4.513722e-01
4.425374e-01
4.340275e-01
4.264918e-01
3.569654e-01
3.723165e-01
4.992707e-01
4.977649e-01
4.953131e-01
4.922660e-01
4.882840e-01
4.833788e-01
4.776211e-01
4.711085e-01
4.639214e-01
4.560539e-01
4.475220e-01
4.384641e-01
4.261834e-01
4.186470e-01
4.122579e-01
3.955995e-01
1.134000e-01
1.134000e-01
1.134000e-01
1.134000e-01
1.134000e-01
1.134000e-01
1.134000e-01
1.134000e-01
1.134000e-01
1.134000e-01
1.134000e-01
1.134000e-01
1.134000e-01
1.134000e-01
1.134000e-01
1.134000e-01
1.134000e-01
1.134000e-01
1.134000e-01
1.134000e-01
1.134000e-01
1.134000e-01
1.134000e-01
1.134000e-01
1.134000e-01
1.134000e-01
1.134000e-01
1.134000e-01
1.134000e-01
1.134000e-01
1.134000e-01
1.134000e-01
1.134000e-01
1.134000e-01
1.134000e-01
1.134000e-01
1.134000e-01
1.134000e-01
1.134000e-01
1.134000e-01
1.134000e-01
1.134000e-01
1.134000e-01
1.134000e-01
1.134000e-01
1.134000e-01
1.134000e-01
1.134000e-01
1.134000e-01
1.134000e-01
1.134000e-01
1.134000e-01
1.134000e-01
1.134000e-01
1.134000e-01
1.134000e-01
1.134000e-01
1.134000e-01
1.134000e-01
1.134000e-01
1.134000e-01
1.134000e-01
1.134000e-01
1.134000e-01
1.134000e-01
1.134000e-01
1.134000e-01
1.134000e-01
1.134000e-01
1.134000e-01
1.134000e-01
1.134000e-01
1.134000e-01
1.134000e-01
1.134000e-01
1.134000e-01
1.134000e-01
1.134000e-01
1.134000e-01
1.134000e-01
1.134000e-01
1.134000e-01
1.134000e-01
1.134000e-01
1.134000e-01
1.134000e-01
1.134000e-01
1.134000e-01
1.134000e-01
1.134000e-01
1.134000e-01
1.134000e-01
1.134000e-01
1.134000e-01
1.134000e-01
1.134000e-01
1.134000e-01
1.134000e-01
1.134000e-01
1.134000e-01
1.134000e-01
1.134000e-01
1.134000e-01
1.134000e-01
1.134000e-01
1.134000e-01
1.134000e-01
1.134000e-01
1.134000e-01
1.134000e-01
1.134000e-01
1.134000e-01
1.134000e-01
1.134000e-01
1.134000e-01
1.134000e-01
1.134000e-01
1.134000e-01
1.134000e-01
1.134000e-01
1.134000e-01
1.134000e-01
1.134000e-01
1.134000e-01
1.134000e-01
1.134000e-01
1.134000e-01
1.134000e-01
1.134000e-01
1.134000e-01
1.134000e-01
1.134000e-01
1.134000e-01
1.134000e-01
1.134000e-01
1.134000e-01
1.134000e-01
1.134000e-01
1.134000e-01
1.134000e-01
1.134000e-01
1.134000e-01
1.134000e-01
1.134000e-01
1.134000e-01
1.134000e-01
1.134000e-01
1.134000e-01
1.134000e-01
1.134000e-01
1.134000e-01
1.134000e-01
1.134000e-01
1.134000e-01
1.134000e-01
1.134000e-01
1.134000e-01
1.134000e-01
1.134000e-01
1.134000e-01
1.134000e-01
1.134000e-01
1.134000e-01
1.134000e-01
1.134000e-01
1.134000e-01
1.134000e-01
1.134000e-01
1.134000e-01
1.134000e-01
1.134000e-01
1.134000e-01
1.134000e-01
1.134000e-01
1.134000e-01
1.134000e-01
1.134000e-01
1.134000e-01
1.134000e-01
1.134000e-01
1.134000e-01
1.134000e-01
1.134000e-01
1.134000e-01
1.134000e-01
1.134000e-01
1.134000e-01
1.134000e-01
1.134000e-01
1.134000e-01
1.134000e-01
1.134000e-01
1.134000e-01
1.134000e-01
1.134000e-01
1.134000e-01
1.134000e-01
1.134000e-01
1.134000e-01
1.134000e-01
1.134000e-01
1.134000e-01
1.134000e-01
1.134000e-01
1.134000e-01
1.134000e-01
1.134000e-01
1.134000e-01
1.134000e-01
1.134000e-01
1.134000e-01
1.134000e-01
1.134000e-01
1.134000e-01
1.134000e-01
1.134000e-01
1.134000e-01
1.134000e-01
1.134000e-01
1.134000e-01
1.134000e-01
1.134000e-01
1.134000e-01
1.134000e-01
1.134000e-01
1.134000e-01
1.134000e-01
1.134000e-01
1.134000e-01
1.134000e-01
1.134000e-01
1.134000e-01
1.134000e-01
1.134000e-01
1.134000e-01
1.134000e-01
1.134000e-01
1.134000e-01
1.134000e-01
1.134000e-01
1.134000e-01
1.134000e-01
1.134000e-01
1.134000e-01
1.134000e-01
1.134000e-01
1.134000e-01
1.134000e-01
1.134000e-01
1.134000e-01
1.134000e-01
1.134000e-01
1.134000e-01
1.134000e-01
1.134000e-01
1.134000e-01
1.134000e-01
1.134000e-01
1.134000e-01
1.134000e-01
1.134000e-01
1.134000e-01
1.134000e-01
1.134000e-01
1.134000e-01
1.134000e-01
1.134000e-01
1.134000e-01
1.134000e-01
1.134000e-01
1.134000e-01
1.134000e-01
1.134000e-01
1.134000e-01
1.134000e-01
1.134000e-01
1.134000e-01
1.134000e-01
1.134000e-01
1.134000e-01
1.134000e-01
1.134000e-01
1.134000e-01
1.134000e-01
1.134000e-01
1.134000e-01
1.134000e-01
1.134000e-01
1.134000e-01
1.134000e-01
1.134000e-01
1.134000e-01
1.134000e-01
1.134000e-01
1.134000e-01
1.134000e-01
1.134000e-01
1.134000e-01
1.134000e-01
1.134000e-01
1.134000e-01
1.134000e-01
1.134000e-01
1.134000e-01
1.134000e-01
1.134000e-01
1.134000e-01
1.134000e-01
1.134000e-01
1.134000e-01
1.134000e-01
1.134000e-01
1.134000e-01
1.134000e-01
1.134000e-01
1.134000e-01
1.134000e-01
1.134000e-01
1.134000e-01
1.134000e-01
1.134000e-01
1.134000e-01
1.134000e-01
1.134000e-01
1.134000e-01
1.134000e-01
1.134000e-01
1.134000e-01
1.134000e-01
1.134000e-01
1.134000e-01
1.134000e-01
1.134000e-01
1.134000e-01
1.134000e-01
1.134000e-01
1.134000e-01
1.134000e-01
1.134000e-01
1.134000e-01
1.134000e-01
1.134000e-01
1.134000e-01
1.134000e-01
1.134000e-01
1.134000e-01
1.134000e-01
1.134000e-01
1.134000e-01
1.134000e-01
1.134000e-01
1.134000e-01
1.134000e-01
1.134000e-01
1.134000e-01
1.134000e-01
1.134000e-01
1.134000e-01
1.134000e-01
1.134000e-01
1.134000e-01
1.134000e-01
1.134000e-01
1.134000e-01
1.134000e-01
1.134000e-01
1.134000e-01
1.134000e-01
1.134000e-01
1.134000e-01
2.634000e-01
2.634000e-01
2.634000e-01
2.634000e-01
2.634000e-01
2.634000e-01
2.634000e-01
2.634000e-01
2.634000e-01
2.634000e-01
2.634000e-01
2.634000e-01
2.634000e-01
2.634000e-01
2.634000e-01
2.634000e-01
2.634000e-01
2.634000e-01
2.634000e-01
2.634000e-01
2.634000e-01
2.634000e-01
2.634000e-01
2.634000e-01
2.634000e-01
2.634000e-01
2.634000e-01
2.634000e-01
2.634000e-01
2.634000e-01
2.634000e-01
2.634000e-01
2.634000e-01
2.148026e-01
2.075091e-01
2.260222e-01
2.117098e-01
2.176404e-01
2.035572e-01
2.031029e-01
1.970005e-01
1.926671e-01
2.156051e-01
2.092472e-01
2.033728e-01
2.145087e-01
2.021826e-01
2.117649e-01
1.308477e-01
2.615417e-01
2.585823e-01
2.519427e-01
2.550110e-01
2.527735e-01
2.467594e-01
2.531552e-01
2.492593e-01
2.452459e-01
2.459888e-01
2.411530e-01
2.361132e-01
2.417098e-01
2.365474e-01
2.314901e-01
2.257019e-01
2.597384e-01
2.367612e-01
2.311541e-01
2.254198e-01
2.218396e-01
2.143150e-01
2.122535e-01
2.171333e-01
2.048300e-01
2.322107e-01
2.218782e-01
2.623741e-01
2.098596e-01
1.955125e-01
2.018144e-01
1.959905e-01
1.898696e-01
1.850039e-01
1.827382e-01
1.871152e-01
1.811231e-01
1.764053e-01
1.728568e-01
1.777016e-01
1.704233e-01
1.669811e-01
1.632848e-01
1.597006e-01
1.569993e-01
1.538260e-01
1.467881e-01
1.443832e-01
1.341915e-01
1.706489e-01
1.555148e-01
1.435389e-01
1.338821e-01
1.234245e-01
2.518415e-01
2.466562e-01
2.626484e-01
2.599956e-01
2.615304e-01
2.558239e-01
2.579254e-01
2.530460e-01
2.472248e-01
2.559599e-01
2.593239e-01
2.620933e-01
1.489030e-01
1.373317e-01
1.244784e-01
1.483909e-01
1.345701e-01
1.215328e-01
2.515531e-01
2.463661e-01
2.625762e-01
2.598350e-01
2.614040e-01
2.556293e-01
2.577128e-01
2.527452e-01
2.468515e-01
1.484256e-01
1.371322e-01
1.244722e-01
1.489906e-01
1.349898e-01
1.216787e-01
2.625170e-01
2.596585e-01
2.611760e-01
2.553597e-01
2.573095e-01
2.523738e-01
2.468213e-01
1.495549e-01
1.377718e-01
1.245023e-01
2.622840e-01
2.586194e-01
2.548183e-01
2.520307e-01
2.484610e-01
2.469935e-01
2.383099e-01
1.487955e-01
1.357147e-01
1.224127e-01
1.738751e-01
1.606502e-01
1.472112e-01
1.324983e-01
1.214914e-01
2.525338e-01
2.476047e-01
2.626186e-01
2.599624e-01
2.614806e-01
2.558116e-01
2.579018e-01
2.528936e-01
2.471391e-01
1.513420e-01
1.392878e-01
1.257062e-01
1.490748e-01
1.354937e-01
2.432436e-01
2.496952e-01
2.543293e-01
2.581387e-01
1.220355e-01
2.625886e-01
2.600200e-01
2.562902e-01
1.511434e-01
1.392918e-01
1.249140e-01
2.501121e-01
2.445381e-01
2.623338e-01
2.593176e-01
2.610456e-01
2.548359e-01
2.567949e-01
2.487593e-01
2.509524e-01
2.411438e-01
2.443839e-01
1.696425e-01
1.572666e-01
1.449098e-01
1.338586e-01
1.227367e-01
1.458117e-01
1.328150e-01
1.209312e-01
2.623300e-01
2.590802e-01
2.606396e-01
2.543270e-01
2.564945e-01
2.514542e-01
2.456627e-01
2.323557e-01
1.470847e-01
1.366352e-01
1.238185e-01
2.627990e-01
2.595559e-01
2.548961e-01
2.515478e-01
2.479259e-01
2.462814e-01
2.371620e-01
1.484555e-01
1.348572e-01
1.220042e-01
1.725422e-01
1.595964e-01
1.465127e-01
1.320851e-01
1.212780e-01
2.512592e-01
2.459848e-01
2.624576e-01
2.596129e-01
2.612778e-01
2.553626e-01
2.573878e-01
2.520118e-01
2.459436e-01
1.502351e-01
1.384689e-01
1.252778e-01
1.473466e-01
1.344162e-01
1.215622e-01
2.516758e-01
2.465043e-01
2.624874e-01
2.233568e-01
2.595940e-01
2.613082e-01
2.552329e-01
2.575500e-01
2.525418e-01
2.465926e-01
1.486620e-01
1.370127e-01
1.240943e-01
1.464107e-01
1.337669e-01
1.212879e-01
2.624667e-01
2.595168e-01
2.610042e-01
2.552195e-01
2.567643e-01
2.510079e-01
2.449831e-01
1.472861e-01
1.365946e-01
1.237496e-01
2.623495e-01
2.600517e-01
2.568863e-01
2.505035e-01
2.509760e-01
2.451245e-01
2.406262e-01
1.474111e-01
1.341012e-01
1.215300e-01
1.765295e-01
1.634378e-01
1.472579e-01
1.346076e-01
1.234802e-01
2.624240e-01
2.592432e-01
2.603841e-01
2.406454e-01
2.472324e-01
2.524290e-01
2.564315e-01
2.589949e-01
2.618872e-01
2.545138e-01
2.561138e-01
2.506476e-01
2.447233e-01
1.472858e-01
1.362239e-01
1.241460e-01
2.625591e-01
2.585602e-01
2.516301e-01
2.462374e-01
2.392210e-01
1.480318e-01
1.347513e-01
1.216594e-01
1.246495e-01
2.566367e-01
2.541229e-01
2.495709e-01
2.491856e-01
2.417074e-01
2.402663e-01
2.427242e-01
2.338578e-01
2.241806e-01
2.282754e-01
2.328990e-01
2.355902e-01
2.152835e-01
2.211818e-01
2.262110e-01
2.254955e-01
1.979648e-01
1.869910e-01
1.784202e-01
1.698475e-01
1.605598e-01
1.500389e-01
1.398970e-01
1.332812e-01
1.245390e-01
1.388995e-01
1.439583e-01
1.530882e-01
1.538110e-01
1.686340e-01
1.654140e-01
1.628287e-01
1.792409e-01
1.754862e-01
1.724842e-01
1.814853e-01
1.930134e-01
1.884392e-01
1.845882e-01
2.057390e-01
2.015222e-01
1.966461e-01
1.929960e-01
1.903704e-01
2.190875e-01
1.995740e-01
2.086025e-01
2.131544e-01
2.608474e-01
1.236681e-01
2.620520e-01
2.617596e-01
2.602277e-01
2.579319e-01
2.627597e-01
2.523969e-01
2.496071e-01
2.462696e-01
2.240503e-01
2.304131e-01
2.380507e-01
2.449327e-01
2.505834e-01
2.550455e-01
2.585373e-01
2.614164e-01
2.627500e-01
2.612686e-01
2.586569e-01
2.549860e-01
2.334203e-01
2.624544e-01
2.604262e-01
2.575216e-01
2.533935e-01
2.486321e-01
2.440080e-01
2.393320e-01
2.629670e-01
2.618421e-01
2.589088e-01
2.567282e-01
2.512814e-01
2.460606e-01
2.412690e-01
2.373556e-01
2.294184e-01
2.228057e-01
1.291827e-01
1.215743e-01
1.507395e-01
1.426876e-01
1.322853e-01
1.242239e-01
1.539749e-01
1.409303e-01
1.872364e-01
1.806461e-01
1.705937e-01
1.575082e-01
1.466291e-01
1.372394e-01
1.285189e-01
1.220022e-01
1.717211e-01
1.612145e-01
2.494772e-01
2.417485e-01
2.333781e-01
2.229997e-01
2.111025e-01
1.979399e-01
1.842596e-01
2.625823e-01
2.605745e-01
2.561633e-01
2.493391e-01
2.407104e-01
2.298841e-01
2.185959e-01
2.064809e-01
1.941920e-01
1.836042e-01
1.715714e-01
1.614822e-01
1.501515e-01
1.369972e-01
1.260163e-01
2.006115e-01
1.922127e-01
1.822048e-01
1.707325e-01
1.600360e-01
1.503135e-01
1.412859e-01
1.332105e-01
1.248508e-01
1.216904e-01
2.359130e-01
2.273840e-01
2.162814e-01
2.033136e-01
1.414876e-01
1.358493e-01
1.254579e-01
1.872907e-01
1.736762e-01
1.602262e-01
1.463488e-01
1.336760e-01
1.235533e-01
2.491839e-01
2.413450e-01
2.326283e-01
2.216664e-01
2.096626e-01
1.969458e-01
1.838050e-01
1.702664e-01
1.582996e-01
1.454730e-01
2.623970e-01
2.603782e-01
2.560006e-01
2.498229e-01
2.407621e-01
2.278589e-01
2.159164e-01
2.033448e-01
1.906180e-01
1.788644e-01
2.623739e-01
2.592102e-01
2.547221e-01
2.498019e-01
2.428019e-01