VARIABLES = "X" "Y" "Z" "FREF"
ZONE T="instant 090"
STRANDID=0, SOLUTIONTIME=0
Nodes=3151, Elements=6298
ZONETYPE=FETriangle
DATAPACKING=BLOCK
VARLOCATION = ([1-3]=NODAL, [4]=CELLCENTERED)
5.000000e-01
2.735478e-01
2.924454e-01
3.070989e-01
3.188965e-01
3.330654e-01
3.475775e-01
3.622860e-01
3.780797e-01
3.947324e-01
4.100803e-01
4.229811e-01
4.345471e-01
4.450898e-01
4.546842e-01
4.631066e-01
4.701630e-01
4.754541e-01
4.803018e-01
4.854523e-01
4.899460e-01
4.934692e-01
4.960383e-01
4.979249e-01
4.991781e-01
4.998493e-01
2.590000e-01
2.590000e-01
2.590000e-01
2.590000e-01
2.590000e-01
2.590000e-01
2.590000e-01
2.590000e-01
2.590000e-01
2.590000e-01
2.590000e-01
2.590000e-01
4.085821e-01
4.076231e-01
4.044616e-01
3.991871e-01
3.910743e-01
3.858138e-01
3.792150e-01
3.703364e-01
3.626956e-01
3.552371e-01
3.470079e-01
3.371790e-01
3.293133e-01
3.220508e-01
3.154425e-01
3.068815e-01
2.980821e-01
2.920432e-01
2.833793e-01
2.716745e-01
4.090000e-01
4.914281e-01
4.825956e-01
4.740482e-01
4.659761e-01
4.569773e-01
4.483729e-01
4.397242e-01
4.313816e-01
4.233240e-01
4.158567e-01
4.267736e-01
3.000576e-01
2.882636e-01
4.364065e-01
4.207630e-01
3.076546e-01
3.168212e-01
2.993536e-01
3.166909e-01
2.773601e-01
3.185188e-01
3.044966e-01
3.206718e-01
3.312134e-01
4.919304e-01
3.422353e-01
3.541409e-01
3.370597e-01
3.453739e-01
3.927270e-01
3.990425e-01
4.289785e-01
4.140747e-01
4.099399e-01
4.351151e-01
4.385827e-01
4.232217e-01
4.880205e-01
4.832089e-01
4.321138e-01
4.412667e-01
4.353578e-01
4.481983e-01
4.403796e-01
4.490913e-01
4.150748e-01
4.278031e-01
4.209562e-01
4.084869e-01
3.005935e-01
2.862887e-01
2.712534e-01
2.754766e-01
2.747514e-01
2.907010e-01
3.042262e-01
2.762189e-01
2.900398e-01
3.055614e-01
3.192115e-01
2.677696e-01
2.773981e-01
2.916875e-01
3.053845e-01
4.899536e-01
3.212467e-01
3.341111e-01
3.365777e-01
3.491083e-01
3.399327e-01
3.502181e-01
3.632798e-01
2.738015e-01
2.897693e-01
3.076935e-01
3.246574e-01
3.228746e-01
3.231378e-01
3.299362e-01
3.380993e-01
3.523710e-01
3.639055e-01
3.712042e-01
3.794177e-01
2.745177e-01
2.907188e-01
3.057314e-01
3.265382e-01
3.379693e-01
3.488301e-01
3.609537e-01
3.543666e-01
3.637175e-01
3.661053e-01
3.761228e-01
3.859074e-01
3.977538e-01
3.357677e-01
3.460223e-01
3.588621e-01
3.760550e-01
4.868650e-01
4.805720e-01
4.782052e-01
4.732160e-01
3.881389e-01
3.988142e-01
4.109611e-01
3.419296e-01
3.681268e-01
3.792932e-01
3.892061e-01
4.002467e-01
4.106685e-01
4.227320e-01
3.542603e-01
3.643740e-01
3.769133e-01
3.808032e-01
3.922603e-01
4.029044e-01
4.834647e-01
4.765181e-01
4.721472e-01
4.673239e-01
4.644845e-01
4.106792e-01
4.208590e-01
4.331368e-01
3.905069e-01
4.045294e-01
4.183172e-01
4.297464e-01
4.427758e-01
3.601368e-01
3.716465e-01
3.819437e-01
3.943663e-01
4.156184e-01
4.287147e-01
4.394456e-01
4.517577e-01
4.045980e-01
4.164968e-01
4.262952e-01
4.382913e-01
4.481568e-01
4.596763e-01
4.544486e-01
4.595946e-01
3.756465e-01
3.864503e-01
3.961853e-01
4.073194e-01
4.167563e-01
4.269293e-01
4.351002e-01
4.467904e-01
4.554896e-01
4.667002e-01
4.421973e-01
4.462499e-01
4.789135e-01
4.719593e-01
4.677512e-01
4.613791e-01
4.590000e-01
4.546287e-01
4.502675e-01
4.474820e-01
4.527674e-01
4.566862e-01
4.620195e-01
4.661670e-01
4.733067e-01
2.590000e-01
4.998014e-01
4.984757e-01
4.962718e-01
4.936268e-01
4.891614e-01
4.839327e-01
4.769782e-01
4.677725e-01
4.566272e-01
4.452364e-01
4.346658e-01
4.232251e-01
4.113973e-01
3.986366e-01
3.872979e-01
3.778751e-01
3.683908e-01
3.573423e-01
3.454415e-01
3.333161e-01
3.210529e-01
3.084777e-01
2.957302e-01
2.826585e-01
2.700595e-01
5.000000e-01
4.158747e-01
4.237704e-01
4.310588e-01
4.399893e-01
4.477944e-01
4.563883e-01
4.653983e-01
4.750791e-01
4.837845e-01
4.923045e-01
4.090000e-01
2.686551e-01
2.781358e-01
2.906304e-01
3.092812e-01
3.212890e-01
3.323892e-01
3.432870e-01
3.528641e-01
3.607006e-01
3.658377e-01
3.729542e-01
3.795587e-01
3.845941e-01
3.884729e-01
3.918548e-01
3.968747e-01
4.006218e-01
4.026714e-01
4.048150e-01
4.069518e-01
4.085378e-01
2.590000e-01
2.590000e-01
2.590000e-01
2.590000e-01
2.590000e-01
2.590000e-01
2.590000e-01
2.590000e-01
2.590000e-01
2.590000e-01
2.590000e-01
4.304482e-01
4.463519e-01
2.892068e-01
3.174525e-01
3.068427e-01
4.111831e-01
4.128736e-01
4.233821e-01
4.201953e-01
4.337721e-01
4.325946e-01
4.379616e-01
4.234181e-01
4.545625e-01
2.716932e-01
4.492001e-01
4.370761e-01
4.494734e-01
4.286904e-01
4.431544e-01
4.363303e-01
4.523958e-01
4.454369e-01
2.733660e-01
3.267894e-01
2.905982e-01
2.854013e-01
2.755935e-01
3.171874e-01
3.391130e-01
3.016717e-01
3.350171e-01
3.171159e-01
3.396354e-01
3.266445e-01
3.475857e-01
3.552477e-01
2.814799e-01
4.153970e-01
2.727276e-01
2.829712e-01
3.006906e-01
4.089180e-01
4.173554e-01
4.233826e-01
4.907109e-01
4.809606e-01
4.866659e-01
4.874881e-01
4.673075e-01
4.722389e-01
4.751397e-01
4.785021e-01
2.978765e-01
2.882061e-01
2.732931e-01
4.825353e-01
4.657687e-01
4.681101e-01
4.715097e-01
4.786971e-01
4.597160e-01
4.613851e-01
4.697621e-01
4.738439e-01
4.055033e-01
4.086665e-01
4.143647e-01
4.474670e-01
4.548867e-01
4.644307e-01
4.424462e-01
4.522307e-01
4.549985e-01
4.592223e-01
4.601187e-01
4.611953e-01
4.638204e-01
3.973261e-01
4.177176e-01
4.265032e-01
4.368302e-01
4.427070e-01
4.477244e-01
4.532539e-01
3.992222e-01
4.008426e-01
4.056764e-01
4.280033e-01
4.349510e-01
3.107939e-01
3.011244e-01
4.380832e-01
4.427899e-01
3.863311e-01
4.079943e-01
4.123513e-01
4.209483e-01
4.259357e-01
4.279816e-01
4.320794e-01
3.884616e-01
3.889508e-01
3.924758e-01
4.104470e-01
4.156953e-01
4.174536e-01
4.210645e-01
3.918795e-01
3.224193e-01
3.114058e-01
3.000072e-01
2.861093e-01
2.717467e-01
3.941878e-01
4.017844e-01
4.053688e-01
4.061138e-01
4.094007e-01
3.710358e-01
3.733509e-01
3.721688e-01
3.762935e-01
3.903498e-01
3.932098e-01
3.943101e-01
3.974391e-01
3.748406e-01
3.771987e-01
3.767814e-01
3.812296e-01
3.831743e-01
3.851191e-01
2.746097e-01
2.887073e-01
3.080143e-01
3.205020e-01
3.323992e-01
3.451983e-01
3.576345e-01
3.509887e-01
3.511475e-01
3.587844e-01
3.608072e-01
3.573851e-01
3.620248e-01
3.644791e-01
3.716188e-01
3.702894e-01
3.708472e-01
3.344087e-01
3.234726e-01
3.129561e-01
3.009056e-01
2.879132e-01
2.727756e-01
3.368266e-01
3.469050e-01
3.578604e-01
3.164085e-01
3.258056e-01
3.355917e-01
3.463670e-01
5.000000e-01
5.000000e-01
5.000000e-01
5.000000e-01
5.000000e-01
5.000000e-01
5.000000e-01
5.000000e-01
5.000000e-01
5.000000e-01
5.000000e-01
5.000000e-01
5.000000e-01
5.000000e-01
5.000000e-01
5.000000e-01
5.000000e-01
5.000000e-01
5.000000e-01
5.000000e-01
5.000000e-01
5.000000e-01
5.000000e-01
5.000000e-01
5.000000e-01
5.000000e-01
5.000000e-01
5.000000e-01
5.000000e-01
5.000000e-01
5.000000e-01
5.000000e-01
5.000000e-01
2.590000e-01
2.590000e-01
2.590000e-01
2.590000e-01
2.590000e-01
2.590000e-01
2.590000e-01
2.590000e-01
2.590000e-01
2.590000e-01
2.590000e-01
2.590000e-01
2.590000e-01
2.590000e-01
2.590000e-01
2.590000e-01
2.590000e-01
2.590000e-01
2.590000e-01
2.590000e-01
2.590000e-01
2.590000e-01
2.590000e-01
2.590000e-01
2.590000e-01
2.590000e-01
2.590000e-01
2.590000e-01
2.590000e-01
2.590000e-01
2.590000e-01
2.590000e-01
2.590000e-01
4.066707e-01
4.142084e-01
4.109371e-01
4.182871e-01
4.259953e-01
4.421953e-01
4.299846e-01
4.352346e-01
3.804859e-01
3.875607e-01
3.928854e-01
3.942593e-01
3.994724e-01
4.035270e-01
4.080697e-01
4.251186e-01
4.130089e-01
4.068620e-01
4.184703e-01
4.299084e-01
4.007205e-01
4.007465e-01
2.798509e-01
2.715472e-01
4.110383e-01
4.225753e-01
4.340517e-01
4.213445e-01
4.288913e-01
4.366086e-01
4.316160e-01
4.386259e-01
4.412862e-01
4.561561e-01
4.326287e-01
4.410889e-01
4.288663e-01
4.450818e-01
4.346788e-01
4.235640e-01
4.488124e-01
4.391190e-01
4.296332e-01
4.199040e-01
4.483907e-01
4.557709e-01
4.530893e-01
4.459525e-01
4.397321e-01
2.961726e-01
2.859452e-01
2.743447e-01
4.167011e-01
4.236126e-01
4.295527e-01
4.113692e-01
4.182998e-01
4.062035e-01
2.713761e-01
2.805679e-01
2.827251e-01
2.917838e-01
2.943893e-01
3.014548e-01
3.037961e-01
3.064202e-01
3.069585e-01
3.125621e-01
3.158200e-01
3.186724e-01
3.194474e-01
3.244226e-01
3.279814e-01
3.310349e-01
3.268432e-01
3.321332e-01
3.366464e-01
3.402470e-01
3.434183e-01
3.353570e-01
3.400675e-01
3.448306e-01
3.490251e-01
3.525268e-01
3.557259e-01
3.433403e-01
3.108561e-01
3.011032e-01
2.905839e-01
2.796049e-01
2.721668e-01
3.483197e-01
3.530121e-01
3.574700e-01
3.614321e-01
3.646995e-01
3.678453e-01
3.558936e-01
3.611903e-01
3.657428e-01
3.699995e-01
3.738156e-01
3.765946e-01
3.796492e-01
3.626295e-01
3.687163e-01
3.740789e-01
3.781994e-01
3.823727e-01
3.862598e-01
3.878887e-01
3.910373e-01
3.692561e-01
3.754640e-01
3.815549e-01
3.870970e-01
3.901068e-01
3.945877e-01
3.992811e-01
3.977737e-01
4.023446e-01
4.107259e-01
4.388003e-01
3.965217e-01
4.070523e-01
4.183250e-01
3.251765e-01
3.160894e-01
3.062707e-01
2.962675e-01
2.871742e-01
2.781721e-01
4.295040e-01
3.891656e-01
4.008498e-01
4.129229e-01
4.244851e-01
4.347863e-01
4.442792e-01
4.133413e-01
4.197792e-01
4.241817e-01
4.282238e-01
4.317700e-01
4.364087e-01
4.410602e-01
4.454120e-01
4.454928e-01
4.477267e-01
4.502444e-01
4.521889e-01
4.539537e-01
4.561639e-01
4.365924e-01
4.422700e-01
4.471832e-01
4.517235e-01
4.560339e-01
4.596246e-01
4.618106e-01
4.453268e-01
4.477266e-01
4.522540e-01
4.576827e-01
4.615330e-01
4.644557e-01
4.670235e-01
4.545457e-01
4.632311e-01
4.620947e-01
4.681640e-01
4.694730e-01
4.718213e-01
4.745414e-01
4.764100e-01
4.622862e-01
4.717007e-01
4.771110e-01
4.805329e-01
4.696726e-01
4.775999e-01
4.810530e-01
4.840043e-01
4.816835e-01
4.875686e-01
3.396706e-01
3.308793e-01
3.214831e-01
3.118522e-01
3.023656e-01
2.927051e-01
2.814173e-01
2.730079e-01
4.857234e-01
4.909864e-01
4.874505e-01
4.917273e-01
4.960792e-01
4.987199e-01
4.971551e-01
4.951383e-01
4.948673e-01
4.927672e-01
4.917589e-01
4.921549e-01
4.878851e-01
4.883558e-01
4.890460e-01
4.899356e-01
4.832859e-01
4.837344e-01
4.844985e-01
4.854981e-01
4.866628e-01
4.782751e-01
4.791037e-01
4.802113e-01
4.815447e-01
4.830048e-01
4.772723e-01
4.790254e-01
4.719256e-01
4.728466e-01
4.740456e-01
4.755532e-01
4.647177e-01
4.657259e-01
4.669717e-01
4.686366e-01
4.706690e-01
4.727929e-01
4.747285e-01
4.568363e-01
4.577961e-01
4.589750e-01
4.607163e-01
4.631221e-01
4.657705e-01
4.681376e-01
4.698078e-01
4.400576e-01
4.406076e-01
4.491902e-01
4.501019e-01
4.516519e-01
4.545841e-01
4.577014e-01
4.613499e-01
4.620816e-01
4.647731e-01
4.415382e-01
4.496340e-01
4.362174e-01
2.993250e-01
3.191788e-01
3.079726e-01
3.233027e-01
3.180118e-01
3.376843e-01
3.339680e-01
3.284270e-01
3.560674e-01
3.492800e-01
3.543563e-01
3.455713e-01
3.363636e-01
3.269536e-01
3.174775e-01
3.078351e-01
2.977623e-01
2.881726e-01
2.785928e-01
3.440681e-01
3.386582e-01
3.721808e-01
3.652442e-01
3.592620e-01
3.538584e-01
3.486053e-01
3.805983e-01
3.742769e-01
3.686403e-01
3.633766e-01
3.582679e-01
3.952497e-01
3.887897e-01
3.829734e-01
3.776783e-01
3.726358e-01
3.676355e-01
4.088598e-01
4.026677e-01
3.967263e-01
3.914248e-01
3.864956e-01
3.816589e-01
3.766727e-01
4.211146e-01
4.159409e-01
4.097664e-01
4.045123e-01
3.997110e-01
3.951764e-01
3.903891e-01
3.852824e-01
4.312174e-01
4.292816e-01
4.219089e-01
4.169189e-01
4.121112e-01
4.080428e-01
4.036954e-01
3.985784e-01
3.934311e-01
4.609546e-01
4.541790e-01
4.456048e-01
4.358993e-01
4.251463e-01
4.135112e-01
4.011855e-01
4.523573e-01
4.429453e-01
4.323999e-01
4.204977e-01
4.085298e-01
2.718268e-01
2.705123e-01
2.727068e-01
2.851889e-01
2.812752e-01
2.884107e-01
2.985381e-01
2.713715e-01
2.826385e-01
2.929109e-01
3.018352e-01
3.115284e-01
2.720599e-01
2.839406e-01
2.949479e-01
3.051496e-01
3.146852e-01
3.242504e-01
3.692019e-01
3.601279e-01
3.509412e-01
3.416991e-01
3.323667e-01
3.228747e-01
3.131455e-01
3.033417e-01
2.932344e-01
2.819175e-01
2.723778e-01
2.690674e-01
2.751644e-01
2.857226e-01
2.967377e-01
3.074014e-01
3.175610e-01
3.273084e-01
3.367967e-01
2.683384e-01
2.714534e-01
2.810075e-01
2.891032e-01
2.990157e-01
3.094869e-01
3.198704e-01
3.299660e-01
3.397800e-01
3.492835e-01
2.746749e-01
2.842476e-01
2.933895e-01
3.021320e-01
3.118866e-01
3.220698e-01
3.322538e-01
3.422543e-01
3.520674e-01
3.618527e-01
3.725801e-01
2.697087e-01
2.791426e-01
2.876847e-01
2.969510e-01
3.058419e-01
3.146169e-01
3.244229e-01
3.344438e-01
3.444759e-01
3.543368e-01
3.639910e-01
3.735937e-01
3.821371e-01
2.705330e-01
2.811410e-01
2.902397e-01
3.001928e-01
3.096226e-01
3.182249e-01
3.265521e-01
3.367482e-01
3.465550e-01
3.565048e-01
3.661877e-01
3.756154e-01
3.853148e-01
3.924529e-01
2.654286e-01
2.720757e-01
2.820181e-01
2.931338e-01
3.010540e-01
3.130716e-01
3.223829e-01
3.305869e-01
3.375567e-01
3.493166e-01
3.583037e-01
3.683807e-01
3.777870e-01
3.867225e-01
3.978288e-01
4.026828e-01
3.840985e-01
3.744432e-01
3.651364e-01
3.560674e-01
3.469567e-01
3.376771e-01
3.281671e-01
3.184284e-01
3.083533e-01
2.977302e-01
2.869098e-01
2.745361e-01
4.993986e-01
4.997910e-01
4.979634e-01
4.990315e-01
4.997365e-01
4.958244e-01
4.975456e-01
4.988395e-01
4.996885e-01
4.903858e-01
4.930666e-01
4.953415e-01
4.972277e-01
4.986873e-01
4.996477e-01
4.797717e-01
4.858437e-01
4.894701e-01
4.923812e-01
4.948577e-01
4.969248e-01
4.985362e-01
4.996052e-01
4.817242e-01
4.853287e-01
4.886747e-01
4.916986e-01
4.943514e-01
4.965904e-01
4.983527e-01
4.995440e-01
4.727485e-01
4.764792e-01
4.803348e-01
4.841744e-01
4.877250e-01
4.909353e-01
4.937633e-01
4.961599e-01
4.980628e-01
4.993917e-01
4.997447e-01
4.646920e-01
4.699164e-01
4.745067e-01
4.788529e-01
4.829263e-01
4.866706e-01
4.900503e-01
4.930231e-01
4.955291e-01
4.974816e-01
4.987733e-01
4.996637e-01
4.495122e-01
4.565586e-01
4.625715e-01
4.678650e-01
4.727521e-01
4.773275e-01
4.815783e-01
4.854766e-01
4.889918e-01
4.920828e-01
4.947021e-01
4.968159e-01
4.984717e-01
4.995903e-01
4.304857e-01
4.402818e-01
4.480396e-01
4.547344e-01
4.605534e-01
4.659246e-01
3.985690e-01
3.883039e-01
3.787547e-01
3.699690e-01
3.611799e-01
3.521858e-01
3.429242e-01
3.333696e-01
3.234736e-01
3.131632e-01
3.024694e-01
2.912185e-01
2.799037e-01
4.709737e-01
4.756988e-01
4.800769e-01
4.840921e-01
4.877198e-01
4.909358e-01
4.937486e-01
4.961792e-01
4.981840e-01
4.995199e-01
2.711957e-01
2.835824e-01
2.960479e-01
3.086068e-01
3.212336e-01
3.338786e-01
3.464749e-01
3.589479e-01
3.712223e-01
3.832447e-01
3.950209e-01
4.065401e-01
4.177212e-01
4.286168e-01
4.389991e-01
4.486741e-01
4.575462e-01
4.660082e-01
4.742272e-01
4.799813e-01
4.854470e-01
4.911559e-01
4.951046e-01
4.981341e-01
4.217022e-01
4.321926e-01
4.394777e-01
4.466711e-01
4.526917e-01
4.584231e-01
4.639100e-01
4.690864e-01
4.738997e-01
4.783592e-01
4.824691e-01
4.861671e-01
4.894943e-01
4.925729e-01
4.952831e-01
4.980302e-01
4.992879e-01
2.718851e-01
2.847982e-01
2.977552e-01
3.107484e-01
3.237500e-01
3.367142e-01
3.495829e-01
3.622929e-01
3.747864e-01
3.870177e-01
3.989460e-01
4.105171e-01
4.216683e-01
4.323355e-01
4.424250e-01
4.518766e-01
4.606470e-01
4.687280e-01
4.759046e-01
4.822361e-01
4.877879e-01
4.925780e-01
4.963146e-01
4.989072e-01
2.725339e-01
2.860156e-01
2.994748e-01
3.129198e-01
3.263221e-01
3.396351e-01
3.527998e-01
3.657556e-01
3.784435e-01
3.908085e-01
4.027946e-01
4.143422e-01
4.253902e-01
4.358792e-01
4.457533e-01
4.549638e-01
4.634602e-01
4.711884e-01
4.780992e-01
4.841949e-01
4.894371e-01
4.937700e-01
4.970768e-01
4.992224e-01
2.731853e-01
2.872368e-01
3.012428e-01
3.151859e-01
3.290259e-01
3.427043e-01
3.561628e-01
3.693407e-01
3.821793e-01
4.120482e-01
4.014885e-01
3.914534e-01
3.832934e-01
3.749740e-01
3.663488e-01
3.573967e-01
3.481026e-01
3.384543e-01
3.284377e-01
3.180500e-01
3.072637e-01
2.960738e-01
2.840810e-01
2.747920e-01
3.946217e-01
4.066117e-01
4.180935e-01
4.290121e-01
4.393171e-01
4.489624e-01
4.579042e-01
4.660990e-01
4.735089e-01
4.801052e-01
4.858597e-01
4.907285e-01
4.946561e-01
4.975694e-01
4.993805e-01
2.737553e-01
2.884968e-01
3.031549e-01
3.176644e-01
3.319631e-01
3.460008e-01
3.597247e-01
3.730834e-01
3.860237e-01
3.984951e-01
4.104480e-01
4.218311e-01
4.325925e-01
4.426863e-01
4.520753e-01
4.607222e-01
4.685927e-01
4.756602e-01
4.819017e-01
4.872856e-01
4.917746e-01
4.953305e-01
4.979116e-01
4.994773e-01
2.745293e-01
2.900996e-01
3.054735e-01
3.205462e-01
3.352730e-01
3.496195e-01
3.635492e-01
3.770270e-01
3.900107e-01
4.024647e-01
4.143477e-01
4.256052e-01
4.361791e-01
4.460244e-01
4.551235e-01
4.634433e-01
4.709589e-01
4.776563e-01
4.835247e-01
4.885316e-01
4.926524e-01
4.958713e-01
4.981730e-01
4.995474e-01
2.759235e-01
2.924234e-01
3.084640e-01
3.240121e-01
3.390843e-01
3.536526e-01
3.676852e-01
3.811923e-01
3.941459e-01
4.065525e-01
4.183536e-01
4.294721e-01
4.398322e-01
4.493705e-01
4.581397e-01
4.660885e-01
4.732223e-01
4.795292e-01
4.850212e-01
4.896463e-01
4.934143e-01
4.963330e-01
4.983950e-01
4.996082e-01
2.777958e-01
2.955860e-01
3.122419e-01
3.281329e-01
3.435170e-01
3.582297e-01
3.721320e-01
3.855049e-01
3.983490e-01
4.107982e-01
4.225195e-01
4.335013e-01
4.436683e-01
4.527763e-01
4.611408e-01
4.686264e-01
4.754357e-01
4.813412e-01
4.864367e-01
4.906303e-01
4.940845e-01
4.967627e-01
4.243772e-01
4.139953e-01
4.025937e-01
3.960068e-01
3.883055e-01
3.801155e-01
3.715352e-01
3.625593e-01
3.532044e-01
3.435011e-01
3.334663e-01
3.230962e-01
3.124363e-01
3.015670e-01
2.912530e-01
2.799873e-01
4.986202e-01
4.996762e-01
2.815344e-01
3.010527e-01
3.165629e-01
3.327917e-01
3.488960e-01
3.638029e-01
3.768010e-01
3.882461e-01
4.026997e-01
4.154320e-01
4.268655e-01
4.376787e-01
4.481722e-01
4.566063e-01
4.636542e-01
4.708750e-01
4.779284e-01
4.834212e-01
4.875268e-01
4.913780e-01
4.946576e-01
4.972645e-01
4.989661e-01
4.997280e-01
4.997369e-01
4.996376e-01
4.988596e-01
4.997557e-01
4.993795e-01
4.984898e-01
4.972974e-01
4.996411e-01
4.988660e-01
4.979300e-01
4.965889e-01
4.950156e-01
4.994396e-01
4.984818e-01
4.972052e-01
4.957214e-01
4.939344e-01
4.919681e-01
4.996524e-01
4.987111e-01
4.979162e-01
4.964945e-01
4.947308e-01
4.927365e-01
4.905101e-01
4.881180e-01
4.835159e-01
4.995355e-01
4.985176e-01
4.971028e-01
4.956252e-01
4.936933e-01
4.914370e-01
4.889614e-01
4.863130e-01
4.782668e-01
4.997567e-01
4.993125e-01
4.981823e-01
4.965867e-01
4.946637e-01
4.925515e-01
4.900817e-01
4.873209e-01
4.843866e-01
4.813561e-01
4.723590e-01
4.996151e-01
4.988100e-01
4.976870e-01
4.959815e-01
4.938401e-01
4.913810e-01
4.886703e-01
4.856543e-01
4.823681e-01
4.790009e-01
4.756464e-01
4.993910e-01
4.984012e-01
4.970205e-01
4.952382e-01
4.929582e-01
4.902713e-01
4.872578e-01
4.839693e-01
4.804097e-01
4.765369e-01
4.727854e-01
4.691718e-01
4.654453e-01
4.571556e-01
4.996891e-01
4.987804e-01
4.978802e-01
4.963702e-01
4.943915e-01
4.919765e-01
4.891203e-01
4.858821e-01
4.822978e-01
4.784426e-01
4.743766e-01
4.697080e-01
4.657306e-01
4.619853e-01
4.262909e-01
4.357194e-01
4.995838e-01
4.987184e-01
4.973341e-01
4.956957e-01
4.935516e-01
4.909394e-01
4.879011e-01
4.844730e-01
4.806874e-01
4.764955e-01
4.720780e-01
4.677047e-01
4.614710e-01
4.579151e-01
4.544600e-01
4.462063e-01
2.590000e-01
2.590000e-01
2.590000e-01
2.590000e-01
2.590000e-01
2.590000e-01
2.590000e-01
2.590000e-01
2.590000e-01
2.590000e-01
2.590000e-01
2.590000e-01
2.590000e-01
2.590000e-01
2.590000e-01
2.590000e-01
2.590000e-01
2.590000e-01
2.590000e-01
2.590000e-01
2.590000e-01
2.590000e-01
2.590000e-01
2.590000e-01
2.590000e-01
2.590000e-01
2.590000e-01
2.590000e-01
2.590000e-01
2.590000e-01
2.590000e-01
2.590000e-01
2.590000e-01
2.590000e-01
2.590000e-01
2.590000e-01
2.590000e-01
2.590000e-01
2.590000e-01
2.590000e-01
2.590000e-01
2.590000e-01
2.590000e-01
2.590000e-01
2.590000e-01
2.590000e-01
2.590000e-01
2.590000e-01
2.590000e-01
2.590000e-01
2.590000e-01
2.590000e-01
2.590000e-01
2.590000e-01
2.590000e-01
2.590000e-01
2.590000e-01
2.590000e-01
2.590000e-01
2.590000e-01
2.590000e-01
2.590000e-01
2.590000e-01
2.590000e-01
2.590000e-01
2.590000e-01
2.590000e-01
2.590000e-01
2.590000e-01
2.590000e-01
2.590000e-01
2.590000e-01
2.590000e-01
2.590000e-01
2.590000e-01
2.590000e-01
2.590000e-01
2.590000e-01
2.590000e-01
2.590000e-01
2.590000e-01
2.590000e-01
2.590000e-01
2.590000e-01
2.590000e-01
2.590000e-01
2.590000e-01
2.590000e-01
2.590000e-01
2.590000e-01
2.590000e-01
2.590000e-01
2.590000e-01
2.590000e-01
2.590000e-01
2.590000e-01
2.590000e-01
2.590000e-01
2.590000e-01
2.590000e-01
2.590000e-01
2.590000e-01
2.590000e-01
2.590000e-01
2.590000e-01
2.590000e-01
2.590000e-01
2.590000e-01
2.590000e-01
2.590000e-01
2.590000e-01
2.590000e-01
2.590000e-01
2.590000e-01
2.590000e-01
2.590000e-01
2.590000e-01
2.590000e-01
2.590000e-01
2.590000e-01
2.590000e-01
2.590000e-01
2.590000e-01
2.590000e-01
2.590000e-01
2.590000e-01
2.590000e-01
2.590000e-01
2.590000e-01
2.590000e-01
2.590000e-01
2.590000e-01
2.590000e-01
2.590000e-01
2.590000e-01
2.590000e-01
2.590000e-01
2.590000e-01
2.590000e-01
2.590000e-01
2.590000e-01
2.590000e-01
2.590000e-01
2.590000e-01
2.590000e-01
2.590000e-01
2.590000e-01
2.590000e-01
2.590000e-01
2.590000e-01
2.590000e-01
2.590000e-01
2.590000e-01
2.590000e-01
2.590000e-01
2.590000e-01
2.590000e-01
2.590000e-01
2.590000e-01
2.590000e-01
2.590000e-01
2.590000e-01
2.590000e-01
2.590000e-01
2.590000e-01
2.590000e-01
2.590000e-01
2.590000e-01
2.590000e-01
2.590000e-01
2.590000e-01
2.590000e-01
2.590000e-01
2.590000e-01
2.590000e-01
2.590000e-01
2.590000e-01
2.590000e-01
2.590000e-01
2.590000e-01
2.590000e-01
2.590000e-01
2.590000e-01
2.590000e-01
2.590000e-01
2.590000e-01
2.590000e-01
2.590000e-01
2.590000e-01
2.590000e-01
2.590000e-01
2.590000e-01
2.590000e-01
2.590000e-01
2.590000e-01
2.590000e-01
2.590000e-01
2.590000e-01
2.590000e-01
2.590000e-01
2.590000e-01
2.590000e-01
2.590000e-01
2.590000e-01
2.590000e-01
2.590000e-01
2.590000e-01
2.590000e-01
2.590000e-01
2.590000e-01
2.590000e-01
2.590000e-01
2.590000e-01
2.590000e-01
2.590000e-01
2.590000e-01
2.590000e-01
2.590000e-01
2.590000e-01
2.590000e-01
2.590000e-01
2.590000e-01
2.590000e-01
2.590000e-01
2.590000e-01
2.590000e-01
2.590000e-01
2.590000e-01
2.590000e-01
2.590000e-01
2.590000e-01
2.590000e-01
2.590000e-01
2.590000e-01
2.590000e-01
2.590000e-01
2.590000e-01
2.590000e-01
2.590000e-01
2.590000e-01
2.590000e-01
2.590000e-01
2.590000e-01
2.590000e-01
2.590000e-01
2.590000e-01
2.590000e-01
2.590000e-01
2.590000e-01
2.590000e-01
2.590000e-01
2.590000e-01
2.590000e-01
2.590000e-01
2.590000e-01
2.590000e-01
2.590000e-01
2.590000e-01
2.590000e-01
2.590000e-01
2.590000e-01
2.590000e-01
2.590000e-01
2.590000e-01
2.590000e-01
2.590000e-01
2.590000e-01
2.590000e-01
2.590000e-01
2.590000e-01
2.590000e-01
2.590000e-01
2.590000e-01
2.590000e-01
2.590000e-01
2.590000e-01
2.590000e-01
2.590000e-01
2.590000e-01
2.590000e-01
2.590000e-01
2.590000e-01
2.590000e-01
2.590000e-01
2.590000e-01
2.590000e-01
2.590000e-01
2.590000e-01
2.590000e-01
2.590000e-01
2.590000e-01
2.590000e-01
2.590000e-01
2.590000e-01
2.590000e-01
2.590000e-01
2.590000e-01
2.590000e-01
2.590000e-01
2.590000e-01
2.590000e-01
2.590000e-01
2.590000e-01
2.590000e-01
2.590000e-01
2.590000e-01
2.590000e-01
2.590000e-01
2.590000e-01
2.590000e-01
2.590000e-01
2.590000e-01
2.590000e-01
2.590000e-01
2.590000e-01
2.590000e-01
2.590000e-01
2.590000e-01
2.590000e-01
2.590000e-01
2.590000e-01
2.590000e-01
2.590000e-01
2.590000e-01
2.590000e-01
2.590000e-01
2.590000e-01
2.590000e-01
2.590000e-01
2.590000e-01
2.590000e-01
2.590000e-01
2.590000e-01
2.590000e-01
2.590000e-01
2.590000e-01
2.590000e-01
2.590000e-01
2.590000e-01
2.590000e-01
2.590000e-01
2.590000e-01
2.590000e-01
2.590000e-01
2.590000e-01
2.590000e-01
2.590000e-01
2.590000e-01
2.590000e-01
2.590000e-01
2.590000e-01
2.590000e-01
2.590000e-01
2.590000e-01
2.590000e-01
2.590000e-01
2.590000e-01
2.590000e-01
2.590000e-01
2.590000e-01
2.590000e-01
2.590000e-01
2.590000e-01
2.590000e-01
2.590000e-01
2.590000e-01
2.590000e-01
2.590000e-01
2.590000e-01
2.590000e-01
4.090000e-01
4.090000e-01
4.090000e-01
4.090000e-01
4.090000e-01
4.090000e-01
4.090000e-01
4.090000e-01
4.090000e-01
4.090000e-01
4.090000e-01
4.090000e-01
4.090000e-01
4.090000e-01
4.090000e-01
4.090000e-01
4.090000e-01
4.090000e-01
4.090000e-01
4.090000e-01
4.090000e-01
4.090000e-01
4.090000e-01
4.090000e-01
4.090000e-01
4.090000e-01
4.090000e-01
4.090000e-01
4.090000e-01
4.090000e-01
4.090000e-01
4.090000e-01
4.090000e-01
3.714472e-01
3.656062e-01
3.806098e-01
3.700606e-01
3.740811e-01
3.625458e-01
3.618177e-01
3.570073e-01
3.531383e-01
3.668251e-01
3.590662e-01
3.531123e-01
3.626561e-01
3.510668e-01
3.589007e-01
2.830902e-01
4.076763e-01
4.055903e-01
4.010976e-01
4.029658e-01
4.014982e-01
3.975659e-01
4.015434e-01
3.989001e-01
3.961940e-01
3.963138e-01
3.929966e-01
3.894681e-01
3.928471e-01
3.893323e-01
3.857518e-01
3.815825e-01
4.059178e-01
3.888864e-01
3.849840e-01
3.809388e-01
3.784710e-01
3.726086e-01
3.688064e-01
3.729525e-01
3.629019e-01
3.852381e-01
3.770710e-01
4.081678e-01
3.673288e-01
3.551115e-01
3.617858e-01
3.562034e-01
3.508217e-01
3.465683e-01
3.442093e-01
3.482152e-01
3.428162e-01
3.382911e-01
3.348080e-01
3.400277e-01
3.331941e-01
3.285678e-01
3.245281e-01
3.210648e-01
3.174133e-01
3.134373e-01
3.056647e-01
3.015291e-01
2.873688e-01
3.316999e-01
3.153875e-01
3.017465e-01
2.910680e-01
2.782025e-01
4.011796e-01
3.977478e-01
4.084954e-01
4.066875e-01
4.077512e-01
4.038021e-01
4.052833e-01
4.019581e-01
3.980947e-01
4.024420e-01
4.050726e-01
4.075858e-01
3.086177e-01
2.969472e-01
2.797915e-01
3.077622e-01
2.914814e-01
2.730677e-01
4.009706e-01
3.975684e-01
4.084033e-01
4.065447e-01
4.075955e-01
4.036972e-01
4.050894e-01
4.017475e-01
3.978864e-01
3.074015e-01
2.961800e-01
2.809608e-01
3.088277e-01
2.919932e-01
2.730380e-01
4.083487e-01
4.063946e-01
4.074175e-01
4.034857e-01
4.047895e-01
4.014784e-01
3.978385e-01
3.093882e-01
2.973099e-01
2.806450e-01
4.081869e-01
4.056678e-01
4.031386e-01
4.012059e-01
3.989066e-01
3.978977e-01
3.917377e-01
3.090217e-01
2.937253e-01
2.739596e-01
3.355695e-01
3.210993e-01
3.058026e-01
2.873484e-01
2.727777e-01
4.013200e-01
3.980278e-01
4.084274e-01
4.065888e-01
4.075892e-01
4.037075e-01
4.050915e-01
4.016508e-01
3.977896e-01
3.107426e-01
2.986991e-01
2.815672e-01
3.084445e-01
2.925830e-01
3.874804e-01
3.956287e-01
4.001019e-01
4.034168e-01
2.733257e-01
4.083445e-01
4.065117e-01
4.038658e-01
3.104605e-01
2.981886e-01
2.804173e-01
3.992663e-01
3.954674e-01
4.081298e-01
4.059032e-01
4.071182e-01
4.027336e-01
4.040372e-01
3.985520e-01
3.999140e-01
3.931622e-01
3.954026e-01
3.304216e-01
3.169518e-01
3.039091e-01
2.910384e-01
2.765349e-01
3.029250e-01
2.879199e-01
2.715565e-01
4.080839e-01
4.056427e-01
4.067229e-01
4.021901e-01
4.037187e-01
4.001221e-01
3.961482e-01
3.759076e-01
3.051441e-01
2.941347e-01
2.783296e-01
4.084922e-01
4.059940e-01
4.026082e-01
4.001181e-01
3.976791e-01
3.964678e-01
3.896331e-01
3.059022e-01
2.907277e-01
2.725757e-01
3.319349e-01
3.178834e-01
3.030637e-01
2.853623e-01
2.716532e-01
3.997019e-01
3.960173e-01
4.081986e-01
4.060141e-01
4.072251e-01
4.028124e-01
4.042663e-01
4.003034e-01
3.960041e-01
3.075915e-01
2.958848e-01
2.795193e-01
3.043219e-01
2.894534e-01
2.718673e-01
3.997238e-01
3.961073e-01
4.081828e-01
3.673122e-01
4.058922e-01
4.071518e-01
4.025585e-01
4.042082e-01
4.004761e-01
3.963114e-01
3.048649e-01
2.932059e-01
2.777959e-01
3.026941e-01
2.879776e-01
2.711288e-01
4.080949e-01
4.056377e-01
4.067106e-01
4.022442e-01
4.032965e-01
3.988553e-01
3.944228e-01
3.035142e-01
2.923594e-01
2.765685e-01
4.078004e-01
4.058613e-01
4.033280e-01
3.976167e-01
3.986051e-01
3.935569e-01
3.906498e-01
3.026378e-01
2.876165e-01
2.707752e-01
3.344450e-01
3.211223e-01
3.007931e-01
2.876242e-01
2.753954e-01
4.078893e-01
4.048200e-01
4.053245e-01
3.855906e-01
3.928893e-01
3.980282e-01
4.015473e-01
4.037494e-01
4.066578e-01
4.006363e-01
4.016175e-01
3.970459e-01
3.923988e-01
3.024546e-01
2.916127e-01
2.767973e-01
4.077370e-01
4.035766e-01
3.973163e-01
3.930112e-01
3.874620e-01
3.029917e-01
2.875558e-01
2.708271e-01
2.756342e-01
4.016324e-01
3.994134e-01
3.955119e-01
3.951926e-01
3.884652e-01
3.869592e-01
3.889565e-01
3.818165e-01
3.738056e-01
3.765640e-01
3.798962e-01
3.819005e-01
3.656689e-01
3.697225e-01
3.734906e-01
3.717404e-01
3.445886e-01
3.356532e-01
3.289128e-01
3.221037e-01
3.140660e-01
3.043971e-01
2.935930e-01
2.852809e-01
2.754789e-01
2.917345e-01
2.971747e-01
3.069347e-01
3.075608e-01
3.236663e-01
3.197550e-01
3.168066e-01
3.335078e-01
3.291798e-01
3.255373e-01
3.331090e-01
3.466862e-01
3.414618e-01
3.370176e-01
3.583885e-01
3.533324e-01
3.480446e-01
3.438928e-01
3.402358e-01
3.648192e-01
3.477243e-01
3.553360e-01
3.585275e-01
4.056644e-01
2.739181e-01
4.077135e-01
4.075799e-01
4.062664e-01
4.038902e-01
4.084000e-01
3.996436e-01
3.977579e-01
3.951005e-01
3.687231e-01
3.750906e-01
3.836240e-01
3.908282e-01
3.962799e-01
4.002518e-01
4.032240e-01
4.061169e-01
4.084897e-01
4.072922e-01
4.051914e-01
4.019577e-01
3.857026e-01
4.082630e-01
4.067244e-01
4.044827e-01
4.011587e-01
3.973128e-01
3.936998e-01
3.900579e-01
4.086519e-01
4.078398e-01
4.056855e-01
4.040315e-01
3.999493e-01
3.957293e-01
3.919404e-01
3.889110e-01
3.828563e-01
3.773051e-01
2.780699e-01
2.695447e-01
3.090631e-01
2.995273e-01
2.880522e-01
2.767074e-01
3.115487e-01
2.955043e-01
3.473513e-01
3.411293e-01
3.313470e-01
3.172022e-01
3.050170e-01
2.934255e-01
2.820714e-01
2.720983e-01
3.317578e-01
3.203581e-01
3.994974e-01
3.940421e-01
3.878994e-01
3.799574e-01
3.703207e-01
3.587731e-01
3.461097e-01
4.084139e-01
4.070674e-01
4.039635e-01
3.992357e-01
3.931747e-01
3.849991e-01
3.762277e-01
3.660523e-01
3.548195e-01
3.453526e-01
3.341589e-01
3.227804e-01
3.104966e-01
2.934999e-01
2.785271e-01
3.595243e-01
3.517046e-01
3.428289e-01
3.323495e-01
3.208799e-01
3.094436e-01
2.979028e-01
2.863587e-01
2.755418e-01
2.710401e-01
3.898475e-01
3.835262e-01
3.747711e-01
3.639592e-01
2.953716e-01
2.900838e-01
2.761266e-01
3.489594e-01
3.352063e-01
3.203209e-01
3.056946e-01
2.904112e-01
2.772974e-01
3.994212e-01
3.939973e-01
3.876216e-01
3.791496e-01
3.694058e-01
3.584246e-01
3.463298e-01
3.324820e-01
3.183985e-01
3.049590e-01
4.083030e-01
4.069396e-01
4.039591e-01
3.998467e-01
3.936308e-01
3.838136e-01
3.744745e-01
3.639065e-01
3.523237e-01
3.413753e-01
4.083188e-01
4.061622e-01
4.030878e-01