VARIABLES = "X" "Y" "Z" "FREF"
ZONE T="instant 058"
Nodes=3151, Elements=6298
ZONETYPE=FETriangle
DATAPACKING=BLOCK
VARLOCATION = ([1-3]=NODAL, [4]=CELLCENTERED)
5.000000e-01
1.910208e-01
2.093850e-01
2.257040e-01
2.406140e-01
2.576107e-01
2.755656e-01
2.943804e-01
3.143250e-01
3.349958e-01
3.554108e-01
3.744319e-01
3.923220e-01
4.093407e-01
4.250502e-01
4.388974e-01
4.505932e-01
4.594571e-01
4.675727e-01
4.760073e-01
4.833584e-01
4.892091e-01
4.935290e-01
4.966858e-01
4.987230e-01
4.997633e-01
1.758000e-01
1.758000e-01
1.758000e-01
1.758000e-01
1.758000e-01
1.758000e-01
1.758000e-01
1.758000e-01
1.758000e-01
1.758000e-01
1.758000e-01
1.758000e-01
3.250502e-01
3.234434e-01
3.195766e-01
3.134474e-01
3.061573e-01
3.009056e-01
2.943425e-01
2.857759e-01
2.775978e-01
2.696507e-01
2.612878e-01
2.514432e-01
2.435039e-01
2.356057e-01
2.281734e-01
2.189731e-01
2.097518e-01
2.028859e-01
1.945149e-01
1.853800e-01
3.258000e-01
4.845310e-01
4.667597e-01
4.507168e-01
4.346862e-01
4.168211e-01
3.986012e-01
3.821043e-01
3.664621e-01
3.508525e-01
3.375618e-01
3.653836e-01
2.146431e-01
2.044146e-01
3.784999e-01
3.568452e-01
2.194210e-01
2.291876e-01
2.111254e-01
2.317745e-01
1.935390e-01
2.326875e-01
2.199019e-01
2.369768e-01
2.485966e-01
4.857349e-01
2.617646e-01
2.778250e-01
2.549910e-01
2.660477e-01
3.138978e-01
3.254536e-01
3.626121e-01
3.417218e-01
3.431454e-01
3.733719e-01
3.846751e-01
3.627155e-01
4.790795e-01
4.692739e-01
3.751818e-01
3.936889e-01
3.858218e-01
4.049366e-01
3.983614e-01
4.101375e-01
3.361992e-01
3.600243e-01
3.473071e-01
3.292132e-01
2.128356e-01
1.989540e-01
1.898465e-01
1.920992e-01
1.915676e-01
2.072621e-01
2.232901e-01
1.921732e-01
2.078158e-01
2.238924e-01
2.405923e-01
1.848171e-01
1.954004e-01
2.093632e-01
2.250640e-01
4.822048e-01
2.412164e-01
2.581011e-01
2.586272e-01
2.760743e-01
2.608742e-01
2.757691e-01
2.941377e-01
1.914840e-01
2.084542e-01
2.255071e-01
2.433242e-01
2.382260e-01
2.369785e-01
2.464118e-01
2.550787e-01
2.740555e-01
2.891627e-01
2.995109e-01
3.128946e-01
1.906225e-01
2.063116e-01
2.235319e-01
2.428301e-01
2.584160e-01
2.725947e-01
2.895033e-01
2.754355e-01
2.871935e-01
2.917898e-01
3.051510e-01
3.193295e-01
3.361495e-01
2.526560e-01
2.659684e-01
2.796010e-01
3.057331e-01
4.765162e-01
4.662013e-01
4.587623e-01
4.498123e-01
3.215187e-01
3.376518e-01
3.553594e-01
2.592264e-01
2.930079e-01
3.075725e-01
3.233594e-01
3.383635e-01
3.549751e-01
3.730763e-01
2.727250e-01
2.872289e-01
3.024584e-01
3.102916e-01
3.259938e-01
3.435339e-01
4.703322e-01
4.587112e-01
4.486471e-01
4.398193e-01
4.301217e-01
3.541976e-01
3.708208e-01
3.894424e-01
3.236693e-01
3.424520e-01
3.652853e-01
3.848664e-01
4.046287e-01
2.781662e-01
2.922085e-01
3.076417e-01
3.244019e-01
3.612932e-01
3.803918e-01
3.995768e-01
4.190370e-01
3.419899e-01
3.596421e-01
3.771889e-01
3.954619e-01
4.135595e-01
4.322920e-01
4.205306e-01
4.326805e-01
2.953556e-01
3.098502e-01
3.258744e-01
3.428631e-01
3.603641e-01
3.770257e-01
3.916853e-01
4.105909e-01
4.263622e-01
4.448121e-01
3.880028e-01
3.953069e-01
4.629211e-01
4.509486e-01
4.404411e-01
4.306059e-01
4.215966e-01
4.128614e-01
4.025806e-01
4.032232e-01
4.123677e-01
4.221894e-01
4.310587e-01
4.420300e-01
4.543680e-01
1.758000e-01
4.996659e-01
4.976808e-01
4.942993e-01
4.896737e-01
4.822400e-01
4.736395e-01
4.626586e-01
4.491086e-01
4.323323e-01
4.150948e-01
3.994844e-01
3.827197e-01
3.651782e-01
3.468392e-01
3.310944e-01
3.178060e-01
3.045633e-01
2.900115e-01
2.746064e-01
2.592443e-01
2.440451e-01
2.289702e-01
2.143896e-01
2.003598e-01
1.873172e-01
5.000000e-01
3.373844e-01
3.511602e-01
3.664712e-01
3.834416e-01
3.999558e-01
4.160194e-01
4.332258e-01
4.519522e-01
4.701302e-01
4.865482e-01
3.258000e-01
1.849999e-01
1.940237e-01
2.050505e-01
2.177791e-01
2.282247e-01
2.383007e-01
2.481474e-01
2.579271e-01
2.664690e-01
2.727846e-01
2.812277e-01
2.888387e-01
2.949425e-01
2.999363e-01
3.045544e-01
3.110549e-01
3.159002e-01
3.185570e-01
3.211028e-01
3.235186e-01
3.252788e-01
1.758000e-01
1.758000e-01
1.758000e-01
1.758000e-01
1.758000e-01
1.758000e-01
1.758000e-01
1.758000e-01
1.758000e-01
1.758000e-01
1.758000e-01
3.659251e-01
3.950446e-01
2.084533e-01
2.371071e-01
2.284888e-01
3.338189e-01
3.402179e-01
3.537276e-01
3.522006e-01
3.725312e-01
3.724122e-01
3.805606e-01
3.620121e-01
4.176307e-01
1.887281e-01
4.046098e-01
3.840261e-01
4.076784e-01
3.699717e-01
3.974510e-01
3.846810e-01
4.138224e-01
4.009520e-01
1.922373e-01
2.381496e-01
2.113887e-01
2.027942e-01
1.918570e-01
2.319124e-01
2.567852e-01
2.230300e-01
2.558967e-01
2.421517e-01
2.656498e-01
2.526599e-01
2.752966e-01
2.869766e-01
1.987248e-01
3.380285e-01
1.911248e-01
2.009675e-01
2.173168e-01
3.289214e-01
3.423551e-01
3.542713e-01
4.816643e-01
4.630718e-01
4.730473e-01
4.781941e-01
4.367971e-01
4.453912e-01
4.530334e-01
4.599925e-01
2.167151e-01
2.051804e-01
1.902738e-01
4.697470e-01
4.336039e-01
4.408658e-01
4.481181e-01
4.630610e-01
4.232971e-01
4.266046e-01
4.461301e-01
4.539430e-01
3.269114e-01
3.346285e-01
3.437037e-01
4.046057e-01
4.187453e-01
4.373836e-01
3.904166e-01
4.083668e-01
4.143338e-01
4.221585e-01
4.275774e-01
4.306414e-01
4.345625e-01
3.141232e-01
3.528018e-01
3.674804e-01
3.876085e-01
3.979331e-01
4.111407e-01
4.230178e-01
3.174828e-01
3.236504e-01
3.320402e-01
3.762593e-01
3.886515e-01
2.314945e-01
2.201339e-01
3.989786e-01
4.080139e-01
2.996059e-01
3.410530e-01
3.509307e-01
3.687649e-01
3.769211e-01
3.851635e-01
3.925720e-01
3.035196e-01
3.089596e-01
3.163808e-01
3.547395e-01
3.636467e-01
3.703927e-01
3.767895e-01
3.230202e-01
2.457641e-01
2.326048e-01
2.184553e-01
2.042408e-01
1.900109e-01
3.287395e-01
3.442276e-01
3.492506e-01
3.547746e-01
3.603666e-01
2.812438e-01
2.855752e-01
2.911933e-01
2.986072e-01
3.283644e-01
3.333647e-01
3.389119e-01
3.437423e-01
3.030558e-01
3.066838e-01
3.117925e-01
3.183125e-01
3.238063e-01
3.269562e-01
1.920174e-01
2.083579e-01
2.282361e-01
2.445209e-01
2.600235e-01
2.757511e-01
2.915264e-01
2.597966e-01
2.625864e-01
2.769943e-01
2.796684e-01
2.828403e-01
2.893369e-01
2.971077e-01
3.063602e-01
3.072313e-01
3.089425e-01
2.605820e-01
2.469548e-01
2.336001e-01
2.204499e-01
2.064155e-01
1.913991e-01
2.640939e-01
2.769655e-01
2.912278e-01
2.381978e-01
2.493207e-01
2.619503e-01
2.758104e-01
5.000000e-01
5.000000e-01
5.000000e-01
5.000000e-01
5.000000e-01
5.000000e-01
5.000000e-01
5.000000e-01
5.000000e-01
5.000000e-01
5.000000e-01
5.000000e-01
5.000000e-01
5.000000e-01
5.000000e-01
5.000000e-01
5.000000e-01
5.000000e-01
5.000000e-01
5.000000e-01
5.000000e-01
5.000000e-01
5.000000e-01
5.000000e-01
5.000000e-01
5.000000e-01
5.000000e-01
5.000000e-01
5.000000e-01
5.000000e-01
5.000000e-01
5.000000e-01
5.000000e-01
1.758000e-01
1.758000e-01
1.758000e-01
1.758000e-01
1.758000e-01
1.758000e-01
1.758000e-01
1.758000e-01
1.758000e-01
1.758000e-01
1.758000e-01
1.758000e-01
1.758000e-01
1.758000e-01
1.758000e-01
1.758000e-01
1.758000e-01
1.758000e-01
1.758000e-01
1.758000e-01
1.758000e-01
1.758000e-01
1.758000e-01
1.758000e-01
1.758000e-01
1.758000e-01
1.758000e-01
1.758000e-01
1.758000e-01
1.758000e-01
1.758000e-01
1.758000e-01
1.758000e-01
3.545103e-01
3.652724e-01
3.610903e-01
3.715488e-01
3.826772e-01
4.084389e-01
3.892415e-01
3.975412e-01
3.186910e-01
3.279180e-01
3.358740e-01
3.368376e-01
3.445821e-01
3.507614e-01
3.556744e-01
3.805961e-01
3.629315e-01
3.538825e-01
3.707712e-01
3.878033e-01
3.457589e-01
3.455059e-01
1.966979e-01
1.882201e-01
3.602345e-01
3.771414e-01
3.943522e-01
3.766471e-01
3.875538e-01
3.988591e-01
3.922485e-01
4.025280e-01
4.069980e-01
4.277159e-01
3.936375e-01
4.064684e-01
3.878822e-01
4.129830e-01
3.968917e-01
3.802234e-01
4.187712e-01
4.033393e-01
3.889821e-01
3.744228e-01
4.176545e-01
4.294656e-01
4.258976e-01
4.141339e-01
4.044703e-01
2.139597e-01
2.030576e-01
1.910430e-01
3.691361e-01
3.797515e-01
3.887523e-01
3.614193e-01
3.715925e-01
3.536424e-01
1.880847e-01
1.974337e-01
1.995639e-01
2.094729e-01
2.121124e-01
2.201447e-01
2.226600e-01
2.254818e-01
2.265721e-01
2.328689e-01
2.364512e-01
2.396369e-01
2.410663e-01
2.467284e-01
2.507712e-01
2.542993e-01
2.498409e-01
2.560936e-01
2.613655e-01
2.656056e-01
2.693953e-01
2.599878e-01
2.657797e-01
2.715491e-01
2.766045e-01
2.808858e-01
2.848310e-01
2.698211e-01
2.306591e-01
2.194813e-01
2.079449e-01
1.963742e-01
1.891458e-01
2.759684e-01
2.818569e-01
2.873903e-01
2.923165e-01
2.964800e-01
3.004640e-01
2.856213e-01
2.923017e-01
2.981683e-01
3.035623e-01
3.084457e-01
3.121734e-01
3.160974e-01
2.945592e-01
3.022241e-01
3.091431e-01
3.146389e-01
3.199869e-01
3.251170e-01
3.274890e-01
3.315294e-01
3.034800e-01
3.114405e-01
3.193358e-01
3.266660e-01
3.308459e-01
3.366328e-01
3.432862e-01
3.410579e-01
3.472783e-01
3.627500e-01
4.039759e-01
3.414393e-01
3.564875e-01
3.732570e-01
2.475223e-01
2.364866e-01
2.252122e-01
2.141515e-01
2.045075e-01
1.948544e-01
3.902904e-01
3.309424e-01
3.471710e-01
3.645640e-01
3.820587e-01
3.975900e-01
4.118947e-01
3.630550e-01
3.728841e-01
3.788084e-01
3.850468e-01
3.905437e-01
3.975081e-01
4.047662e-01
4.120486e-01
4.127968e-01
4.165378e-01
4.207282e-01
4.228014e-01
4.258712e-01
4.296109e-01
3.975033e-01
4.063423e-01
4.138796e-01
4.213121e-01
4.285609e-01
4.343343e-01
4.381424e-01
4.110660e-01
4.148684e-01
4.216612e-01
4.301043e-01
4.368464e-01
4.418298e-01
4.460973e-01
4.253447e-01
4.387678e-01
4.368743e-01
4.471137e-01
4.497183e-01
4.536035e-01
4.576514e-01
4.608454e-01
4.375005e-01
4.525579e-01
4.617125e-01
4.672995e-01
4.491922e-01
4.623156e-01
4.682279e-01
4.730311e-01
4.692730e-01
4.789493e-01
2.650561e-01
2.539584e-01
2.427030e-01
2.315992e-01
2.210190e-01
2.103893e-01
1.981982e-01
1.899908e-01
4.758759e-01
4.844524e-01
4.784888e-01
4.854881e-01
4.929434e-01
4.980221e-01
4.955390e-01
4.923138e-01
4.918402e-01
4.884755e-01
4.867718e-01
4.875269e-01
4.804918e-01
4.814088e-01
4.825407e-01
4.838939e-01
4.730987e-01
4.739703e-01
4.752643e-01
4.768342e-01
4.785957e-01
4.651500e-01
4.666130e-01
4.684211e-01
4.704775e-01
4.726713e-01
4.636060e-01
4.662333e-01
4.547729e-01
4.565512e-01
4.586128e-01
4.610057e-01
4.431048e-01
4.450967e-01
4.473641e-01
4.501057e-01
4.532277e-01
4.564023e-01
4.593327e-01
4.306366e-01
4.324091e-01
4.346559e-01
4.376545e-01
4.413913e-01
4.454668e-01
4.489679e-01
4.517026e-01
4.044281e-01
4.058105e-01
4.187567e-01
4.205772e-01
4.234158e-01
4.279624e-01
4.328894e-01
4.386170e-01
4.397892e-01
4.436705e-01
4.061852e-01
4.185504e-01
3.976032e-01
2.189987e-01
2.419591e-01
2.291758e-01
2.471213e-01
2.406596e-01
2.644270e-01
2.599641e-01
2.531339e-01
2.870536e-01
2.790856e-01
2.832322e-01
2.717964e-01
2.604244e-01
2.492190e-01
2.381976e-01
2.272299e-01
2.159935e-01
2.057325e-01
1.954694e-01
2.723864e-01
2.654919e-01
3.076668e-01
2.993662e-01
2.917357e-01
2.845874e-01
2.776358e-01
3.196169e-01
3.113647e-01
3.037707e-01
2.965659e-01
2.895802e-01
3.395744e-01
3.309112e-01
3.229455e-01
3.155089e-01
3.083745e-01
3.013583e-01
3.587372e-01
3.501120e-01
3.418803e-01
3.342875e-01
3.271090e-01
3.200727e-01
3.129702e-01
3.764158e-01
3.689268e-01
3.603380e-01
3.526727e-01
3.455537e-01
3.387024e-01
3.316555e-01
3.243384e-01
3.911430e-01
3.885344e-01
3.779906e-01
3.704812e-01
3.633818e-01
3.570056e-01
3.503421e-01
3.429149e-01
3.353475e-01
4.370944e-01
4.263378e-01
4.129994e-01
3.980362e-01
3.814812e-01
3.639089e-01
3.459221e-01
4.229815e-01
4.085880e-01
3.924115e-01
3.737392e-01
3.559193e-01
1.890667e-01
1.872538e-01
1.897989e-01
2.030590e-01
1.984204e-01
2.063851e-01
2.178096e-01
1.883109e-01
1.998514e-01
2.112166e-01
2.213690e-01
2.327495e-01
1.890702e-01
2.013396e-01
2.134286e-01
2.249800e-01
2.362809e-01
2.479560e-01
3.020177e-01
2.899871e-01
2.783359e-01
2.669997e-01
2.558243e-01
2.446768e-01
2.334547e-01
2.224736e-01
2.113199e-01
1.989565e-01
1.897381e-01
1.858369e-01
1.922252e-01
2.032982e-01
2.154379e-01
2.275113e-01
2.395400e-01
2.514024e-01
2.633703e-01
1.850914e-01
1.881222e-01
1.980586e-01
2.069260e-01
2.179401e-01
2.298680e-01
2.421728e-01
2.544486e-01
2.667448e-01
2.791766e-01
1.914800e-01
2.013914e-01
2.114211e-01
2.212848e-01
2.325580e-01
2.446620e-01
2.570686e-01
2.695852e-01
2.822599e-01
2.955368e-01
3.100580e-01
1.864955e-01
1.960627e-01
2.052158e-01
2.152885e-01
2.252712e-01
2.355722e-01
2.472811e-01
2.595503e-01
2.721203e-01
2.848282e-01
2.976364e-01
3.108114e-01
3.229203e-01
1.872427e-01
1.981032e-01
2.079601e-01
2.189453e-01
2.295703e-01
2.395901e-01
2.496095e-01
2.621011e-01
2.744830e-01
2.872892e-01
3.001478e-01
3.129858e-01
3.265160e-01
3.372266e-01
1.819917e-01
1.888502e-01
1.991519e-01
2.111245e-01
2.198562e-01
2.337106e-01
2.444255e-01
2.542243e-01
2.628675e-01
2.775681e-01
2.893153e-01
3.026311e-01
3.155196e-01
3.280127e-01
3.438827e-01
3.517732e-01
3.212592e-01
3.084022e-01
2.963585e-01
2.849120e-01
2.736690e-01
2.624525e-01
2.511803e-01
2.398543e-01
2.283819e-01
2.165791e-01
2.050832e-01
1.920773e-01
4.990613e-01
4.996718e-01
4.968214e-01
4.984887e-01
4.995850e-01
4.933349e-01
4.960992e-01
4.981526e-01
4.995033e-01
4.844442e-01
4.888041e-01
4.924914e-01
4.955290e-01
4.978776e-01
4.994297e-01
4.673780e-01
4.770945e-01
4.829364e-01
4.876411e-01
4.916380e-01
4.949805e-01
4.975993e-01
4.993496e-01
4.705079e-01
4.762069e-01
4.815790e-01
4.864477e-01
4.907308e-01
4.943675e-01
4.972581e-01
4.992372e-01
4.565147e-01
4.623378e-01
4.682671e-01
4.743031e-01
4.799527e-01
4.850996e-01
4.896704e-01
4.935865e-01
4.967449e-01
4.990113e-01
4.995866e-01
4.440506e-01
4.520003e-01
4.590362e-01
4.657636e-01
4.721608e-01
4.781038e-01
4.835246e-01
4.883528e-01
4.924907e-01
4.957831e-01
4.980037e-01
4.994463e-01
4.210595e-01
4.313434e-01
4.404405e-01
4.485121e-01
4.560222e-01
4.631260e-01
4.698000e-01
4.759928e-01
4.816500e-01
4.867060e-01
4.910759e-01
4.946582e-01
4.974357e-01
4.993040e-01
3.927111e-01
4.070119e-01
4.183061e-01
4.282133e-01
4.369951e-01
4.451886e-01
3.406449e-01
3.268157e-01
3.142531e-01
3.028501e-01
2.916695e-01
2.804600e-01
2.691558e-01
2.577345e-01
2.461281e-01
2.342427e-01
2.223302e-01
2.098524e-01
1.976205e-01
4.529492e-01
4.602824e-01
4.671618e-01
4.735527e-01
4.794051e-01
4.846901e-01
4.893922e-01
4.934700e-01
4.968839e-01
4.991336e-01
1.878876e-01
2.004479e-01
2.139033e-01
2.278882e-01
2.425611e-01
2.576547e-01
2.731162e-01
2.888679e-01
3.048094e-01
3.208556e-01
3.370208e-01
3.532633e-01
3.694428e-01
3.856909e-01
4.013951e-01
4.162566e-01
4.300486e-01
4.434147e-01
4.569941e-01
4.663177e-01
4.750294e-01
4.845555e-01
4.912882e-01
4.963803e-01
3.794843e-01
3.947815e-01
4.053424e-01
4.157900e-01
4.247590e-01
4.334060e-01
4.417464e-01
4.496763e-01
4.571451e-01
4.641747e-01
4.707056e-01
4.766638e-01
4.821717e-01
4.872769e-01
4.917564e-01
4.965096e-01
4.986506e-01
1.885537e-01
2.017108e-01
2.157511e-01
2.303098e-01
2.455076e-01
2.610868e-01
2.770016e-01
2.931858e-01
3.095641e-01
3.260693e-01
3.426253e-01
3.591196e-01
3.754310e-01
3.913841e-01
4.067410e-01
4.213540e-01
4.351407e-01
4.480900e-01
4.596834e-01
4.698846e-01
4.789943e-01
4.870056e-01
4.933442e-01
4.979256e-01
1.892242e-01
2.030348e-01
2.176759e-01
2.328343e-01
2.486022e-01
2.647226e-01
2.811436e-01
2.977958e-01
3.145973e-01
3.314544e-01
3.482551e-01
3.648679e-01
3.811442e-01
3.969215e-01
4.120457e-01
4.263859e-01
4.398156e-01
4.521748e-01
4.633152e-01
4.732335e-01
4.818830e-01
4.891450e-01
4.947960e-01
4.985767e-01
1.899405e-01
2.044060e-01
2.197106e-01
2.355378e-01
2.519397e-01
2.686426e-01
2.855833e-01
3.026837e-01
3.198501e-01
3.597714e-01
3.450262e-01
3.315112e-01
3.206327e-01
3.097416e-01
2.986536e-01
2.873753e-01
2.759210e-01
2.642817e-01
2.524178e-01
2.403064e-01
2.279808e-01
2.153510e-01
2.018569e-01
1.924049e-01
3.369736e-01
3.539301e-01
3.705825e-01
3.867832e-01
4.023833e-01
4.172441e-01
4.312345e-01
4.442239e-01
4.560940e-01
4.667639e-01
4.761707e-01
4.842236e-01
4.908074e-01
4.957666e-01
4.989072e-01
1.905947e-01
2.058439e-01
2.219604e-01
2.385561e-01
2.556402e-01
2.729329e-01
2.903681e-01
3.078664e-01
3.253304e-01
3.426477e-01
3.596959e-01
3.763376e-01
3.924215e-01
4.077982e-01
4.223378e-01
4.359212e-01
4.484361e-01
4.597909e-01
4.699156e-01
4.787331e-01
4.861562e-01
4.920942e-01
4.964456e-01
4.991069e-01
1.914198e-01
2.076477e-01
2.246783e-01
2.420961e-01
2.598526e-01
2.776909e-01
2.955544e-01
3.133743e-01
3.310565e-01
3.485015e-01
3.655971e-01
3.821914e-01
3.981120e-01
4.131982e-01
4.273486e-01
4.404657e-01
4.524584e-01
4.632507e-01
4.727848e-01
4.809814e-01
4.877786e-01
4.931245e-01
4.969601e-01
4.992492e-01
1.927433e-01
2.101354e-01
2.281429e-01
2.463643e-01
2.647173e-01
2.830131e-01
3.011841e-01
3.192088e-01
3.370071e-01
3.545499e-01
3.716911e-01
3.882105e-01
4.039229e-01
4.186192e-01
4.322916e-01
4.448598e-01
4.563020e-01
4.665062e-01
4.754205e-01
4.829663e-01
4.891649e-01
4.939956e-01
4.973944e-01
4.993702e-01
1.945786e-01
2.135702e-01
2.326578e-01
2.514723e-01
2.703833e-01
2.890564e-01
3.072309e-01
3.252265e-01
3.430308e-01
3.609084e-01
3.780691e-01
3.944550e-01
4.099967e-01
4.241165e-01
4.371280e-01
4.489864e-01
4.600636e-01
4.696671e-01
4.778589e-01
4.846619e-01
4.903570e-01
4.948032e-01
3.782716e-01
3.634767e-01
3.469927e-01
3.381160e-01
3.278177e-01
3.169724e-01
3.057938e-01
2.943600e-01
2.827207e-01
2.708897e-01
2.588489e-01
2.465556e-01
2.340680e-01
2.215951e-01
2.102246e-01
1.980537e-01
4.978289e-01
4.994964e-01
1.986054e-01
2.197657e-01
2.377558e-01
2.573475e-01
2.773150e-01
2.964094e-01
3.134142e-01
3.290916e-01
3.496893e-01
3.680054e-01
3.847169e-01
4.007679e-01
4.170835e-01
4.300901e-01
4.409893e-01
4.525978e-01
4.643815e-01
4.731389e-01
4.796569e-01
4.859485e-01
4.913594e-01
4.957341e-01
4.984148e-01
4.995941e-01
4.995807e-01
4.993793e-01
4.981560e-01
4.996079e-01
4.989206e-01
4.974715e-01
4.955952e-01
4.993824e-01
4.981529e-01
4.965304e-01
4.943499e-01
4.918345e-01
4.989217e-01
4.974093e-01
4.953807e-01
4.929013e-01
4.899903e-01
4.867922e-01
4.994257e-01
4.978006e-01
4.963788e-01
4.941173e-01
4.912869e-01
4.880037e-01
4.843539e-01
4.804099e-01
4.727943e-01
4.992125e-01
4.975271e-01
4.952310e-01
4.926972e-01
4.895543e-01
4.858943e-01
4.818231e-01
4.774433e-01
4.642194e-01
4.995913e-01
4.987927e-01
4.969531e-01
4.943701e-01
4.912682e-01
4.877449e-01
4.837032e-01
4.792035e-01
4.743609e-01
4.693224e-01
4.547361e-01
4.993591e-01
4.980492e-01
4.961333e-01
4.933619e-01
4.899146e-01
4.859394e-01
4.814839e-01
4.765498e-01
4.712032e-01
4.656201e-01
4.600484e-01
4.989357e-01
4.973750e-01
4.951382e-01
4.921845e-01
4.884827e-01
4.841504e-01
4.792814e-01
4.739179e-01
4.680936e-01
4.618508e-01
4.555676e-01
4.495994e-01
4.437857e-01
4.307929e-01
4.995074e-01
4.980211e-01
4.965381e-01
4.941198e-01
4.909096e-01
4.869579e-01
4.823227e-01
4.770957e-01
4.713323e-01
4.650738e-01
4.583689e-01
4.509653e-01
4.441472e-01
4.380834e-01
3.826370e-01
3.958736e-01
4.993367e-01
4.979781e-01
4.957867e-01
4.931119e-01
4.896402e-01
4.853983e-01
4.804541e-01
4.748951e-01
4.687930e-01
4.621354e-01
4.549999e-01
4.476133e-01
4.375752e-01
4.316085e-01
4.263588e-01
4.132909e-01
1.758000e-01
1.758000e-01
1.758000e-01
1.758000e-01
1.758000e-01
1.758000e-01
1.758000e-01
1.758000e-01
1.758000e-01
1.758000e-01
1.758000e-01
1.758000e-01
1.758000e-01
1.758000e-01
1.758000e-01
1.758000e-01
1.758000e-01
1.758000e-01
1.758000e-01
1.758000e-01
1.758000e-01
1.758000e-01
1.758000e-01
1.758000e-01
1.758000e-01
1.758000e-01
1.758000e-01
1.758000e-01
1.758000e-01
1.758000e-01
1.758000e-01
1.758000e-01
1.758000e-01
1.758000e-01
1.758000e-01
1.758000e-01
1.758000e-01
1.758000e-01
1.758000e-01
1.758000e-01
1.758000e-01
1.758000e-01
1.758000e-01
1.758000e-01
1.758000e-01
1.758000e-01
1.758000e-01
1.758000e-01
1.758000e-01
1.758000e-01
1.758000e-01
1.758000e-01
1.758000e-01
1.758000e-01
1.758000e-01
1.758000e-01
1.758000e-01
1.758000e-01
1.758000e-01
1.758000e-01
1.758000e-01
1.758000e-01
1.758000e-01
1.758000e-01
1.758000e-01
1.758000e-01
1.758000e-01
1.758000e-01
1.758000e-01
1.758000e-01
1.758000e-01
1.758000e-01
1.758000e-01
1.758000e-01
1.758000e-01
1.758000e-01
1.758000e-01
1.758000e-01
1.758000e-01
1.758000e-01
1.758000e-01
1.758000e-01
1.758000e-01
1.758000e-01
1.758000e-01
1.758000e-01
1.758000e-01
1.758000e-01
1.758000e-01
1.758000e-01
1.758000e-01
1.758000e-01
1.758000e-01
1.758000e-01
1.758000e-01
1.758000e-01
1.758000e-01
1.758000e-01
1.758000e-01
1.758000e-01
1.758000e-01
1.758000e-01
1.758000e-01
1.758000e-01
1.758000e-01
1.758000e-01
1.758000e-01
1.758000e-01
1.758000e-01
1.758000e-01
1.758000e-01
1.758000e-01
1.758000e-01
1.758000e-01
1.758000e-01
1.758000e-01
1.758000e-01
1.758000e-01
1.758000e-01
1.758000e-01
1.758000e-01
1.758000e-01
1.758000e-01
1.758000e-01
1.758000e-01
1.758000e-01
1.758000e-01
1.758000e-01
1.758000e-01
1.758000e-01
1.758000e-01
1.758000e-01
1.758000e-01
1.758000e-01
1.758000e-01
1.758000e-01
1.758000e-01
1.758000e-01
1.758000e-01
1.758000e-01
1.758000e-01
1.758000e-01
1.758000e-01
1.758000e-01
1.758000e-01
1.758000e-01
1.758000e-01
1.758000e-01
1.758000e-01
1.758000e-01
1.758000e-01
1.758000e-01
1.758000e-01
1.758000e-01
1.758000e-01
1.758000e-01
1.758000e-01
1.758000e-01
1.758000e-01
1.758000e-01
1.758000e-01
1.758000e-01
1.758000e-01
1.758000e-01
1.758000e-01
1.758000e-01
1.758000e-01
1.758000e-01
1.758000e-01
1.758000e-01
1.758000e-01
1.758000e-01
1.758000e-01
1.758000e-01
1.758000e-01
1.758000e-01
1.758000e-01
1.758000e-01
1.758000e-01
1.758000e-01
1.758000e-01
1.758000e-01
1.758000e-01
1.758000e-01
1.758000e-01
1.758000e-01
1.758000e-01
1.758000e-01
1.758000e-01
1.758000e-01
1.758000e-01
1.758000e-01
1.758000e-01
1.758000e-01
1.758000e-01
1.758000e-01
1.758000e-01
1.758000e-01
1.758000e-01
1.758000e-01
1.758000e-01
1.758000e-01
1.758000e-01
1.758000e-01
1.758000e-01
1.758000e-01
1.758000e-01
1.758000e-01
1.758000e-01
1.758000e-01
1.758000e-01
1.758000e-01
1.758000e-01
1.758000e-01
1.758000e-01
1.758000e-01
1.758000e-01
1.758000e-01
1.758000e-01
1.758000e-01
1.758000e-01
1.758000e-01
1.758000e-01
1.758000e-01
1.758000e-01
1.758000e-01
1.758000e-01
1.758000e-01
1.758000e-01
1.758000e-01
1.758000e-01
1.758000e-01
1.758000e-01
1.758000e-01
1.758000e-01
1.758000e-01
1.758000e-01
1.758000e-01
1.758000e-01
1.758000e-01
1.758000e-01
1.758000e-01
1.758000e-01
1.758000e-01
1.758000e-01
1.758000e-01
1.758000e-01
1.758000e-01
1.758000e-01
1.758000e-01
1.758000e-01
1.758000e-01
1.758000e-01
1.758000e-01
1.758000e-01
1.758000e-01
1.758000e-01
1.758000e-01
1.758000e-01
1.758000e-01
1.758000e-01
1.758000e-01
1.758000e-01
1.758000e-01
1.758000e-01
1.758000e-01
1.758000e-01
1.758000e-01
1.758000e-01
1.758000e-01
1.758000e-01
1.758000e-01
1.758000e-01
1.758000e-01
1.758000e-01
1.758000e-01
1.758000e-01
1.758000e-01
1.758000e-01
1.758000e-01
1.758000e-01
1.758000e-01
1.758000e-01
1.758000e-01
1.758000e-01
1.758000e-01
1.758000e-01
1.758000e-01
1.758000e-01
1.758000e-01
1.758000e-01
1.758000e-01
1.758000e-01
1.758000e-01
1.758000e-01
1.758000e-01
1.758000e-01
1.758000e-01
1.758000e-01
1.758000e-01
1.758000e-01
1.758000e-01
1.758000e-01
1.758000e-01
1.758000e-01
1.758000e-01
1.758000e-01
1.758000e-01
1.758000e-01
1.758000e-01
1.758000e-01
1.758000e-01
1.758000e-01
1.758000e-01
1.758000e-01
1.758000e-01
1.758000e-01
1.758000e-01
1.758000e-01
1.758000e-01
1.758000e-01
1.758000e-01
1.758000e-01
1.758000e-01
1.758000e-01
1.758000e-01
1.758000e-01
1.758000e-01
1.758000e-01
1.758000e-01
1.758000e-01
1.758000e-01
1.758000e-01
1.758000e-01
1.758000e-01
1.758000e-01
1.758000e-01
1.758000e-01
1.758000e-01
1.758000e-01
1.758000e-01
1.758000e-01
1.758000e-01
1.758000e-01
1.758000e-01
1.758000e-01
1.758000e-01
1.758000e-01
1.758000e-01
1.758000e-01
1.758000e-01
1.758000e-01
1.758000e-01
1.758000e-01
1.758000e-01
1.758000e-01
1.758000e-01
1.758000e-01
1.758000e-01
1.758000e-01
1.758000e-01
1.758000e-01
1.758000e-01
1.758000e-01
1.758000e-01
1.758000e-01
1.758000e-01
1.758000e-01
1.758000e-01
1.758000e-01
3.258000e-01
3.258000e-01
3.258000e-01
3.258000e-01
3.258000e-01
3.258000e-01
3.258000e-01
3.258000e-01
3.258000e-01
3.258000e-01
3.258000e-01
3.258000e-01
3.258000e-01
3.258000e-01
3.258000e-01
3.258000e-01
3.258000e-01
3.258000e-01
3.258000e-01
3.258000e-01
3.258000e-01
3.258000e-01
3.258000e-01
3.258000e-01
3.258000e-01
3.258000e-01
3.258000e-01
3.258000e-01
3.258000e-01
3.258000e-01
3.258000e-01
3.258000e-01
3.258000e-01
2.806385e-01
2.742596e-01
2.910013e-01
2.790371e-01
2.837313e-01
2.709933e-01
2.698829e-01
2.646905e-01
2.603274e-01
2.787647e-01
2.716757e-01
2.657432e-01
2.759101e-01
2.639431e-01
2.724385e-01
1.958124e-01
3.241117e-01
3.214232e-01
3.155023e-01
3.181168e-01
3.161714e-01
3.109914e-01
3.163592e-01
3.129706e-01
3.094975e-01
3.098547e-01
3.056945e-01
3.013425e-01
3.056665e-01
3.013328e-01
2.970230e-01
2.920342e-01
3.215059e-01
3.008341e-01
2.961400e-01
2.913577e-01
2.884342e-01
2.817732e-01
2.765470e-01
2.816748e-01
2.701780e-01
2.963250e-01
2.867426e-01
3.245007e-01
2.755899e-01
2.622465e-01
2.701890e-01
2.643418e-01
2.583185e-01
2.534680e-01
2.508148e-01
2.562614e-01
2.502583e-01
2.453714e-01
2.415668e-01
2.475929e-01
2.404197e-01
2.361542e-01
2.320845e-01
2.292951e-01
2.259234e-01
2.221853e-01
2.151083e-01
2.117923e-01
1.998969e-01
2.401615e-01
2.246178e-01
2.118145e-01
2.014881e-01
1.895794e-01
3.153748e-01
3.109076e-01
3.251096e-01
3.227064e-01
3.240615e-01
3.189425e-01
3.207998e-01
3.164559e-01
3.114292e-01
3.172893e-01
3.208189e-01
3.239962e-01
2.180236e-01
2.061021e-01
1.908048e-01
2.171773e-01
2.016769e-01
1.861461e-01
3.150106e-01
3.105388e-01
3.250005e-01
3.224836e-01
3.238789e-01
3.186891e-01
3.205159e-01
3.160824e-01
3.109959e-01
2.171244e-01
2.055562e-01
1.911420e-01
2.179022e-01
2.021131e-01
1.862570e-01
3.249195e-01
3.222593e-01
3.236211e-01
3.183553e-01
3.200876e-01
3.156794e-01
3.108688e-01
2.185446e-01
2.063555e-01
1.910843e-01
3.246865e-01
3.212710e-01
3.178763e-01
3.153274e-01
3.122835e-01
3.109526e-01
3.033062e-01
2.178605e-01
2.033851e-01
1.871698e-01
2.432393e-01
2.297513e-01
2.153689e-01
1.986417e-01
1.860296e-01
3.156023e-01
3.112746e-01
3.250304e-01
3.225351e-01
3.238910e-01
3.186746e-01
3.205560e-01
3.159939e-01
3.109212e-01
2.200921e-01
2.078001e-01
1.922073e-01
2.176332e-01
2.026172e-01
3.026792e-01
3.101624e-01
3.152572e-01
3.192622e-01
1.866188e-01
3.249422e-01
3.224839e-01
3.189844e-01
2.197748e-01
2.075228e-01
1.911860e-01
3.131289e-01
3.082262e-01
3.246630e-01
3.217195e-01
3.233373e-01
3.175524e-01
3.193022e-01
3.121035e-01
3.139381e-01
3.053209e-01
3.081238e-01
2.387368e-01
2.261305e-01
2.133600e-01
2.011309e-01
1.881686e-01
2.134597e-01
1.991186e-01
1.851788e-01
3.246268e-01
3.214274e-01
3.228577e-01
3.169379e-01
3.189438e-01
3.143036e-01
3.091697e-01
2.912198e-01
2.153763e-01
2.044720e-01
1.898437e-01
3.251610e-01
3.219135e-01
3.175344e-01
3.144132e-01
3.112108e-01
3.097381e-01
3.014831e-01
2.164570e-01
2.017663e-01
1.864490e-01
2.410141e-01
2.278948e-01
2.139859e-01
1.977489e-01
1.855666e-01
3.140531e-01
3.093662e-01
3.247852e-01
3.219730e-01
3.235553e-01
3.178913e-01
3.197936e-01
3.147647e-01
3.093143e-01
2.183470e-01
2.064085e-01
1.913910e-01
2.152236e-01
2.009991e-01
1.859067e-01
3.143126e-01
3.097178e-01
3.247931e-01
2.822340e-01
3.219014e-01
3.235319e-01
3.177018e-01
3.198574e-01
3.151564e-01
3.098472e-01
2.163273e-01
2.044508e-01
1.899577e-01
2.140827e-01
2.001063e-01
1.855005e-01
3.247370e-01
3.217272e-01
3.231221e-01
3.175427e-01
3.189648e-01
3.135219e-01
3.080508e-01
2.150757e-01
2.040011e-01
1.894323e-01
3.244978e-01
3.221708e-01
3.190903e-01
3.125499e-01
3.133997e-01
3.076105e-01
3.038443e-01
2.146305e-01
2.002195e-01
1.855908e-01
2.442113e-01
2.313345e-01
2.135813e-01
2.005019e-01
1.885816e-01
3.246243e-01
3.211420e-01
3.219833e-01
3.003504e-01
3.076434e-01
3.131814e-01
3.173701e-01
3.200671e-01
3.234288e-01
3.162717e-01
3.176152e-01
3.122237e-01
3.066631e-01
2.144791e-01
2.033397e-01
1.896073e-01
3.246234e-01
3.199876e-01
3.127935e-01
3.076743e-01
3.011723e-01
2.147563e-01
2.003322e-01
1.855574e-01
1.883990e-01
3.177304e-01
3.150906e-01
3.106286e-01
3.101544e-01
3.028855e-01
3.012808e-01
3.034707e-01
2.954488e-01
2.865142e-01
2.898892e-01
2.938381e-01
2.961102e-01
2.779536e-01
2.828234e-01
2.871341e-01
2.857751e-01
2.581364e-01
2.485523e-01
2.412833e-01
2.339328e-01
2.256048e-01
2.157568e-01
2.054677e-01
1.982547e-01
1.890708e-01
2.044040e-01
2.095302e-01
2.187850e-01
2.196562e-01
2.348255e-01
2.311799e-01
2.282906e-01
2.446746e-01
2.405709e-01
2.371433e-01
2.450708e-01
2.577935e-01
2.529055e-01
2.486926e-01
2.696927e-01
2.651320e-01
2.600279e-01
2.560168e-01
2.527203e-01
2.789185e-01
2.607362e-01
2.688373e-01
2.726147e-01
3.221656e-01
1.878507e-01
3.243456e-01
3.241004e-01
3.225492e-01
3.199655e-01
3.251115e-01
3.144886e-01
3.119875e-01
3.086723e-01
2.833052e-01
2.898765e-01
2.981526e-01
3.054502e-01
3.113785e-01
3.159708e-01
3.195766e-01
3.229153e-01
3.251647e-01
3.236801e-01
3.211215e-01
3.172552e-01
2.963682e-01
3.248957e-01
3.229506e-01
3.201635e-01
3.160807e-01
3.113304e-01
3.067999e-01
3.021920e-01
3.253867e-01
3.243545e-01
3.216097e-01
3.195477e-01
3.144501e-01
3.092821e-01
3.045844e-01
3.007665e-01
2.932700e-01
2.864422e-01
1.930189e-01
1.849928e-01
2.174482e-01
2.092285e-01
1.986324e-01
1.892066e-01
2.198222e-01
2.064758e-01
2.528963e-01
2.471594e-01
2.377572e-01
2.249395e-01
2.140775e-01
2.039242e-01
1.941194e-01
1.862198e-01
2.378413e-01
2.279222e-01
3.133699e-01
3.065817e-01
2.991803e-01
2.899150e-01
2.791315e-01
2.669003e-01
2.539038e-01
3.250448e-01
3.232604e-01
3.192455e-01
3.131977e-01
3.056233e-01
2.959266e-01
2.858049e-01
2.746946e-01
2.631326e-01
2.532103e-01
2.416848e-01
2.311918e-01
2.193732e-01
2.043348e-01
1.912943e-01
2.655361e-01
2.582098e-01
2.493220e-01
2.388545e-01
2.283870e-01
2.182992e-01
2.083715e-01
1.988388e-01
1.893667e-01
1.856552e-01
3.014449e-01
2.939147e-01
2.839391e-01
2.720902e-01
2.066819e-01
2.013043e-01
1.897172e-01
2.568031e-01
2.433945e-01
2.295454e-01
2.151799e-01
2.009426e-01
1.891397e-01
3.130545e-01
3.062230e-01
2.985471e-01
2.887553e-01
2.778886e-01
2.661275e-01
2.536509e-01
2.402277e-01
2.276146e-01
2.143076e-01
3.248465e-01
3.230189e-01
3.190483e-01
3.136536e-01
3.057920e-01
2.942590e-01
2.835716e-01
2.720593e-01
2.600658e-01
2.488481e-01
3.248510e-01
3.219683e-01
3.179555e-01
3.136569e-01
3.075506e-01