VARIABLES = "X" "Y" "Z" "FREF"
ZONE T="instant 016"
Nodes=3151, Elements=6298
ZONETYPE=FETriangle
DATAPACKING=BLOCK
VARLOCATION = ([1-3]=NODAL, [4]=CELLCENTERED)
5.000000e-01
8.355576e-02
1.050832e-01
1.259693e-01
1.461444e-01
1.697069e-01
1.950925e-01
2.217837e-01
2.495518e-01
2.778113e-01
3.059001e-01
3.326903e-01
3.578347e-01
3.818642e-01
4.036809e-01
4.223763e-01
4.377367e-01
4.494159e-01
4.598844e-01
4.703708e-01
4.794273e-01
4.866742e-01
4.920899e-01
4.960145e-01
4.984785e-01
4.997101e-01
6.660000e-02
6.660000e-02
6.660000e-02
6.660000e-02
6.660000e-02
6.660000e-02
6.660000e-02
6.660000e-02
6.660000e-02
6.660000e-02
6.660000e-02
6.660000e-02
2.160985e-01
2.147739e-01
2.121037e-01
2.081144e-01
2.033766e-01
1.990180e-01
1.934947e-01
1.865132e-01
1.788622e-01
1.712268e-01
1.629523e-01
1.533780e-01
1.447219e-01
1.361067e-01
1.273317e-01
1.162753e-01
1.056553e-01
9.728563e-02
8.765893e-02
7.721436e-02
2.166000e-01
4.771297e-01
4.465420e-01
4.208506e-01
3.945025e-01
3.611211e-01
3.288414e-01
3.019705e-01
2.769697e-01
2.523460e-01
2.319347e-01
2.898504e-01
1.143325e-01
1.017614e-01
3.026955e-01
2.816749e-01
1.163818e-01
1.288904e-01
1.079795e-01
1.340690e-01
8.850017e-02
1.376532e-01
1.212751e-01
1.430854e-01
1.583311e-01
4.793407e-01
1.765038e-01
1.986377e-01
1.671884e-01
1.816764e-01
2.178847e-01
2.399683e-01
2.760138e-01
2.553365e-01
2.642552e-01
2.902593e-01
3.186034e-01
2.932007e-01
4.699257e-01
4.543787e-01
3.083999e-01
3.368694e-01
3.310352e-01
3.568088e-01
3.579222e-01
3.697617e-01
2.319688e-01
2.685762e-01
2.508292e-01
2.277180e-01
1.081608e-01
9.203700e-02
8.409404e-02
8.597209e-02
8.614913e-02
1.054616e-01
1.251517e-01
8.696975e-02
1.067086e-01
1.270424e-01
1.481292e-01
7.771959e-02
9.097203e-02
1.086452e-01
1.289696e-01
4.750271e-01
1.498255e-01
1.720840e-01
1.732214e-01
1.968521e-01
1.763349e-01
1.963190e-01
2.218329e-01
8.664765e-02
1.077497e-01
1.295781e-01
1.528006e-01
1.390069e-01
1.380871e-01
1.508055e-01
1.646762e-01
1.935826e-01
2.139421e-01
2.275436e-01
2.467351e-01
8.436297e-02
1.041545e-01
1.262224e-01
1.514395e-01
1.732261e-01
1.923323e-01
2.152884e-01
1.923244e-01
2.101207e-01
2.175031e-01
2.355213e-01
2.546548e-01
2.780786e-01
1.577756e-01
1.755168e-01
1.952199e-01
2.367877e-01
4.670461e-01
4.511653e-01
4.372324e-01
4.207094e-01
2.583583e-01
2.804235e-01
3.053192e-01
1.629294e-01
2.152740e-01
2.365990e-01
2.604449e-01
2.816761e-01
3.046781e-01
3.302903e-01
1.805840e-01
2.006949e-01
2.246196e-01
2.382203e-01
2.608332e-01
2.879075e-01
4.586640e-01
4.399927e-01
4.230358e-01
4.059258e-01
3.859266e-01
3.038205e-01
3.268422e-01
3.532426e-01
2.552550e-01
2.824506e-01
3.188818e-01
3.462518e-01
3.742249e-01
1.826050e-01
2.017996e-01
2.237682e-01
2.491772e-01
3.099955e-01
3.381011e-01
3.657091e-01
3.936813e-01
2.769685e-01
3.044789e-01
3.309534e-01
3.580837e-01
3.845597e-01
4.116190e-01
3.890141e-01
4.095848e-01
2.001696e-01
2.211681e-01
2.447511e-01
2.714277e-01
3.006162e-01
3.284363e-01
3.508863e-01
3.787982e-01
4.024927e-01
4.288090e-01
3.147565e-01
3.295079e-01
4.494853e-01
4.297918e-01
4.115601e-01
3.939859e-01
3.758391e-01
3.571462e-01
3.384677e-01
3.470172e-01
3.654023e-01
3.831032e-01
4.002952e-01
4.194700e-01
4.394732e-01
6.660000e-02
4.995977e-01
4.976135e-01
4.941169e-01
4.890677e-01
4.811308e-01
4.717485e-01
4.599737e-01
4.456975e-01
4.274764e-01
4.074086e-01
3.885548e-01
3.674147e-01
3.431875e-01
3.178289e-01
2.958902e-01
2.767281e-01
2.569381e-01
2.337036e-01
2.086478e-01
1.839059e-01
1.600256e-01
1.372313e-01
1.160854e-01
9.692286e-02
8.023595e-02
5.000000e-01
2.316734e-01
2.523213e-01
2.783503e-01
3.079158e-01
3.362655e-01
3.638836e-01
3.912153e-01
4.216053e-01
4.539125e-01
4.805681e-01
2.166000e-01
7.584820e-02
8.511755e-02
9.601076e-02
1.078127e-01
1.186206e-01
1.287310e-01
1.390027e-01
1.489589e-01
1.578770e-01
1.650071e-01
1.733669e-01
1.809871e-01
1.872567e-01
1.925323e-01
1.975001e-01
2.032779e-01
2.077797e-01
2.105195e-01
2.128315e-01
2.148489e-01
2.161828e-01
6.660000e-02
6.660000e-02
6.660000e-02
6.660000e-02
6.660000e-02
6.660000e-02
6.660000e-02
6.660000e-02
6.660000e-02
6.660000e-02
6.660000e-02
2.809556e-01
3.300734e-01
1.107206e-01
1.421829e-01
1.369340e-01
2.341474e-01
2.457252e-01
2.607190e-01
2.646180e-01
2.917481e-01
2.930672e-01
3.040479e-01
2.858004e-01
3.803388e-01
8.360501e-02
3.510029e-01
3.237702e-01
3.613495e-01
3.029402e-01
3.473361e-01
3.280294e-01
3.724728e-01
3.544149e-01
8.840602e-02
1.302767e-01
1.122910e-01
1.024712e-01
8.862687e-02
1.304798e-01
1.643336e-01
1.313039e-01
1.705017e-01
1.579305e-01
1.904332e-01
1.756524e-01
2.077833e-01
2.286674e-01
8.933753e-02
2.337346e-01
8.594626e-02
9.489252e-02
1.094316e-01
2.238464e-01
2.433456e-01
2.623889e-01
4.710848e-01
4.403808e-01
4.572149e-01
4.704527e-01
3.975616e-01
4.119402e-01
4.262813e-01
4.412515e-01
1.222399e-01
1.079136e-01
8.692630e-02
4.594781e-01
3.959116e-01
4.098758e-01
4.252463e-01
4.507507e-01
3.771055e-01
3.833424e-01
4.244231e-01
4.386817e-01
2.281376e-01
2.406742e-01
2.574436e-01
3.624098e-01
3.838294e-01
4.166161e-01
3.209827e-01
3.532823e-01
3.649582e-01
3.789743e-01
3.912396e-01
3.997730e-01
4.071478e-01
2.099754e-01
2.770786e-01
3.046338e-01
3.379592e-01
3.561019e-01
3.794635e-01
4.045037e-01
2.171023e-01
2.299491e-01
2.465868e-01
3.265100e-01
3.483811e-01
1.436763e-01
1.289250e-01
3.688663e-01
3.892217e-01
1.943674e-01
2.674622e-01
2.925459e-01
3.220280e-01
3.373655e-01
3.548207e-01
3.719680e-01
2.029498e-01
2.160536e-01
2.326441e-01
3.065669e-01
3.234561e-01
3.383614e-01
3.531297e-01
2.514573e-01
1.655549e-01
1.476205e-01
1.278474e-01
1.076275e-01
8.732588e-02
2.707448e-01
2.965315e-01
3.071715e-01
3.199402e-01
3.324599e-01
1.748324e-01
1.852036e-01
2.001264e-01
2.161049e-01
2.765661e-01
2.883909e-01
3.003704e-01
3.105681e-01
2.308276e-01
2.442429e-01
2.569487e-01
2.702880e-01
2.807708e-01
2.880493e-01
8.854897e-02
1.112516e-01
1.409394e-01
1.653079e-01
1.893837e-01
2.134987e-01
2.365313e-01
1.528921e-01
1.637818e-01
1.872979e-01
1.960372e-01
2.090642e-01
2.242569e-01
2.398084e-01
2.553404e-01
2.589073e-01
2.635663e-01
1.886656e-01
1.694152e-01
1.503863e-01
1.312212e-01
1.108985e-01
8.859981e-02
1.959713e-01
2.147657e-01
2.364548e-01
1.568375e-01
1.740181e-01
1.922008e-01
2.124849e-01
5.000000e-01
5.000000e-01
5.000000e-01
5.000000e-01
5.000000e-01
5.000000e-01
5.000000e-01
5.000000e-01
5.000000e-01
5.000000e-01
5.000000e-01
5.000000e-01
5.000000e-01
5.000000e-01
5.000000e-01
5.000000e-01
5.000000e-01
5.000000e-01
5.000000e-01
5.000000e-01
5.000000e-01
5.000000e-01
5.000000e-01
5.000000e-01
5.000000e-01
5.000000e-01
5.000000e-01
5.000000e-01
5.000000e-01
5.000000e-01
5.000000e-01
5.000000e-01
5.000000e-01
6.660000e-02
6.660000e-02
6.660000e-02
6.660000e-02
6.660000e-02
6.660000e-02
6.660000e-02
6.660000e-02
6.660000e-02
6.660000e-02
6.660000e-02
6.660000e-02
6.660000e-02
6.660000e-02
6.660000e-02
6.660000e-02
6.660000e-02
6.660000e-02
6.660000e-02
6.660000e-02
6.660000e-02
6.660000e-02
6.660000e-02
6.660000e-02
6.660000e-02
6.660000e-02
6.660000e-02
6.660000e-02
6.660000e-02
6.660000e-02
6.660000e-02
6.660000e-02
6.660000e-02
3.368096e-01
3.520177e-01
3.449510e-01
3.593956e-01
3.740910e-01
3.843373e-01
3.582862e-01
3.697598e-01
2.849085e-01
2.992177e-01
3.105828e-01
3.122419e-01
3.228087e-01
3.307480e-01
3.396904e-01
3.724109e-01
3.498562e-01
3.373548e-01
3.595841e-01
3.810353e-01
3.256518e-01
3.260950e-01
9.118657e-02
8.129784e-02
3.456019e-01
3.674366e-01
3.886537e-01
3.653826e-01
3.797929e-01
3.939573e-01
3.851652e-01
3.981461e-01
4.029043e-01
4.274588e-01
3.668688e-01
3.828694e-01
3.581782e-01
3.908562e-01
3.695385e-01
3.474446e-01
3.981822e-01
3.774083e-01
3.585097e-01
3.388948e-01
3.963628e-01
4.118097e-01
4.076828e-01
3.918566e-01
3.793025e-01
1.123552e-01
9.931684e-02
8.493660e-02
3.305726e-01
3.453986e-01
3.579231e-01
3.199037e-01
3.340191e-01
3.088799e-01
8.349927e-02
9.685257e-02
1.006179e-01
1.149332e-01
1.197960e-01
1.317212e-01
1.359687e-01
1.410187e-01
1.418208e-01
1.515830e-01
1.580931e-01
1.638330e-01
1.649791e-01
1.742245e-01
1.814767e-01
1.877109e-01
1.799112e-01
1.897478e-01
1.984031e-01
2.057761e-01
2.122100e-01
1.963239e-01
2.057694e-01
2.149749e-01
2.232439e-01
2.304639e-01
2.368462e-01
2.114357e-01
1.339049e-01
1.201023e-01
1.059159e-01
9.182236e-02
8.255220e-02
2.216429e-01
2.313386e-01
2.402594e-01
2.481737e-01
2.550217e-01
2.611267e-01
2.361110e-01
2.470148e-01
2.567250e-01
2.653262e-01
2.728318e-01
2.789364e-01
2.845447e-01
2.501052e-01
2.616932e-01
2.725033e-01
2.817567e-01
2.899150e-01
2.972062e-01
3.014191e-01
3.065958e-01
2.629070e-01
2.751286e-01
2.870375e-01
2.980817e-01
3.057275e-01
3.138079e-01
3.231104e-01
3.201780e-01
3.279758e-01
3.426802e-01
3.982567e-01
3.155585e-01
3.356422e-01
3.583467e-01
1.566433e-01
1.425647e-01
1.281083e-01
1.140375e-01
1.016522e-01
9.002937e-02
3.812098e-01
3.020095e-01
3.244418e-01
3.482630e-01
3.716997e-01
3.911599e-01
4.079508e-01
3.488979e-01
3.628791e-01
3.690961e-01
3.776869e-01
3.847679e-01
3.930750e-01
4.014454e-01
4.097730e-01
4.105993e-01
4.144245e-01
4.185710e-01
4.220225e-01
4.252732e-01
4.289284e-01
3.922021e-01
4.033904e-01
4.121154e-01
4.204148e-01
4.284540e-01
4.346646e-01
4.385209e-01
4.078295e-01
4.130066e-01
4.209450e-01
4.301131e-01
4.373850e-01
4.427646e-01
4.471473e-01
4.241956e-01
4.392843e-01
4.374911e-01
4.481315e-01
4.510542e-01
4.550523e-01
4.591394e-01
4.624831e-01
4.373614e-01
4.538154e-01
4.630936e-01
4.689009e-01
4.500000e-01
4.636368e-01
4.695439e-01
4.744351e-01
4.704217e-01
4.801484e-01
1.810342e-01
1.664235e-01
1.515452e-01
1.368579e-01
1.228852e-01
1.093630e-01
9.437222e-02
8.365356e-02
4.771067e-01
4.854503e-01
4.796221e-01
4.864879e-01
4.934785e-01
4.977065e-01
4.947491e-01
4.908219e-01
4.903983e-01
4.860764e-01
4.844233e-01
4.851154e-01
4.770407e-01
4.778215e-01
4.789298e-01
4.803688e-01
4.683998e-01
4.689681e-01
4.701604e-01
4.717903e-01
4.737375e-01
4.584753e-01
4.597186e-01
4.615492e-01
4.637968e-01
4.663024e-01
4.551265e-01
4.582074e-01
4.459899e-01
4.475144e-01
4.495683e-01
4.521705e-01
4.318796e-01
4.335195e-01
4.357359e-01
4.387217e-01
4.422994e-01
4.460108e-01
4.495350e-01
4.168473e-01
4.179192e-01
4.199516e-01
4.232046e-01
4.275418e-01
4.324473e-01
4.366000e-01
4.400617e-01
3.830718e-01
3.834672e-01
4.010251e-01
4.022180e-01
4.051793e-01
4.104675e-01
4.166335e-01
4.238214e-01
4.252500e-01
4.299585e-01
3.808873e-01
3.968637e-01
3.687575e-01
1.279487e-01
1.600318e-01
1.407453e-01
1.654940e-01
1.551572e-01
1.910925e-01
1.823440e-01
1.715017e-01
2.248195e-01
2.104810e-01
2.067122e-01
1.914181e-01
1.760725e-01
1.608516e-01
1.459329e-01
1.313490e-01
1.168531e-01
1.035416e-01
9.108496e-02
1.990475e-01
1.879700e-01
2.538119e-01
2.401176e-01
2.271854e-01
2.154438e-01
2.043327e-01
2.691202e-01
2.555715e-01
2.431400e-01
2.315614e-01
2.205490e-01
2.973391e-01
2.833590e-01
2.705803e-01
2.587099e-01
2.474633e-01
2.366112e-01
3.238092e-01
3.100633e-01
2.972149e-01
2.853169e-01
2.740862e-01
2.632118e-01
2.524967e-01
3.475274e-01
3.355292e-01
3.226469e-01
3.109208e-01
2.999872e-01
2.894212e-01
2.788199e-01
2.681163e-01
3.666296e-01
3.616891e-01
3.465013e-01
3.351588e-01
3.246520e-01
3.148816e-01
3.048131e-01
2.941483e-01
2.832736e-01
4.212598e-01
4.074316e-01
3.901791e-01
3.703942e-01
3.474732e-01
3.227622e-01
2.976667e-01
4.026986e-01
3.842830e-01
3.627309e-01
3.357730e-01
3.108054e-01
8.362297e-02
8.255142e-02
8.582523e-02
1.025346e-01
9.786105e-02
1.087068e-01
1.232601e-01
8.422900e-02
1.003930e-01
1.157550e-01
1.300709e-01
1.453038e-01
8.626598e-02
1.035947e-01
1.202684e-01
1.364491e-01
1.525358e-01
1.686417e-01
2.332562e-01
2.172107e-01
2.014010e-01
1.857772e-01
1.703354e-01
1.550645e-01
1.399728e-01
1.253383e-01
1.110329e-01
9.556646e-02
8.362554e-02
8.123274e-02
9.164782e-02
1.077181e-01
1.247838e-01
1.419326e-01
1.590764e-01
1.762037e-01
1.930596e-01
7.971263e-02
8.445684e-02
9.924704e-02
1.134469e-01
1.298151e-01
1.472009e-01
1.649852e-01
1.828737e-01
2.008105e-01
2.185157e-01
8.943507e-02
1.041700e-01
1.195953e-01
1.354295e-01
1.525069e-01
1.704738e-01
1.888323e-01
2.073096e-01
2.259770e-01
2.457772e-01
2.669267e-01
8.155315e-02
9.540988e-02
1.092023e-01
1.250570e-01
1.413586e-01
1.578992e-01
1.755546e-01
1.941931e-01
2.130013e-01
2.317624e-01
2.505603e-01
2.693788e-01
2.854395e-01
8.257472e-02
9.838308e-02
1.129512e-01
1.296602e-01
1.473876e-01
1.640498e-01
1.801175e-01
1.986991e-01
2.181262e-01
2.370108e-01
2.557890e-01
2.741542e-01
2.920391e-01
3.061646e-01
7.507019e-02
8.450587e-02
9.950603e-02
1.178544e-01
1.308989e-01
1.526368e-01
1.712512e-01
1.871710e-01
2.003350e-01
2.229139e-01
2.417403e-01
2.605894e-01
2.793071e-01
2.965212e-01
3.169682e-01
3.263534e-01
2.601938e-01
2.433153e-01
2.271147e-01
2.112815e-01
1.955867e-01
1.799360e-01
1.643536e-01
1.489079e-01
1.336260e-01
1.183274e-01
1.036061e-01
8.767233e-02
4.990226e-01
4.996619e-01
4.967309e-01
4.984411e-01
4.995759e-01
4.931708e-01
4.960393e-01
4.981404e-01
4.995062e-01
4.839075e-01
4.885912e-01
4.924524e-01
4.955580e-01
4.979172e-01
4.994479e-01
4.660694e-01
4.763756e-01
4.827428e-01
4.876736e-01
4.917692e-01
4.951236e-01
4.976984e-01
4.993839e-01
4.699549e-01
4.760582e-01
4.817225e-01
4.867393e-01
4.910548e-01
4.946391e-01
4.974247e-01
4.992903e-01
4.546538e-01
4.614792e-01
4.680773e-01
4.745432e-01
4.804321e-01
4.856649e-01
4.902021e-01
4.939994e-01
4.969908e-01
4.990827e-01
4.996125e-01
4.415042e-01
4.507604e-01
4.586797e-01
4.660251e-01
4.728020e-01
4.789256e-01
4.843670e-01
4.890932e-01
4.930465e-01
4.961158e-01
4.981131e-01
4.994709e-01
4.155972e-01
4.278132e-01
4.385645e-01
4.478118e-01
4.561611e-01
4.638294e-01
4.708251e-01
4.771351e-01
4.827443e-01
4.876245e-01
4.917322e-01
4.950194e-01
4.975815e-01
4.993394e-01
3.813331e-01
3.992240e-01
4.135127e-01
4.253938e-01
4.356561e-01
4.449662e-01
2.871147e-01
2.691552e-01
2.526162e-01
2.369056e-01
2.212736e-01
2.055334e-01
1.897086e-01
1.738598e-01
1.580281e-01
1.422063e-01
1.266010e-01
1.110159e-01
9.616782e-02
4.535259e-01
4.613691e-01
4.685098e-01
4.749568e-01
4.806959e-01
4.857383e-01
4.901290e-01
4.939018e-01
4.970626e-01
4.991905e-01
8.409923e-02
1.028764e-01
1.233489e-01
1.454450e-01
1.689234e-01
1.932582e-01
2.180007e-01
2.426988e-01
2.669349e-01
2.903865e-01
3.130030e-01
3.348856e-01
3.559588e-01
3.764669e-01
3.955602e-01
4.128479e-01
4.284112e-01
4.430642e-01
4.575820e-01
4.670004e-01
4.759559e-01
4.854470e-01
4.918819e-01
4.967645e-01
3.655300e-01
3.854034e-01
3.988252e-01
4.116421e-01
4.223739e-01
4.324643e-01
4.419023e-01
4.505826e-01
4.584999e-01
4.657395e-01
4.722793e-01
4.780726e-01
4.833099e-01
4.881317e-01
4.923192e-01
4.967195e-01
4.987311e-01
8.526707e-02
1.050949e-01
1.265214e-01
1.494453e-01
1.735661e-01
1.983610e-01
2.233953e-01
2.482593e-01
2.726202e-01
2.962674e-01
3.191094e-01
3.410735e-01
3.620764e-01
3.819566e-01
4.004236e-01
4.174073e-01
4.329579e-01
4.471737e-01
4.595221e-01
4.701748e-01
4.795352e-01
4.875323e-01
4.937522e-01
4.981357e-01
8.635298e-02
1.071698e-01
1.294911e-01
1.532111e-01
1.779676e-01
2.032342e-01
2.285893e-01
2.536642e-01
2.781785e-01
3.019433e-01
3.248280e-01
3.467148e-01
3.674761e-01
3.869670e-01
4.050681e-01
4.217302e-01
4.369171e-01
4.505433e-01
4.625434e-01
4.730269e-01
4.819940e-01
4.893683e-01
4.950005e-01
4.986724e-01
8.740029e-02
1.091733e-01
1.324074e-01
1.569425e-01
1.823456e-01
2.080826e-01
2.337511e-01
2.590197e-01
2.836411e-01
3.139372e-01
2.943261e-01
2.769465e-01
2.621087e-01
2.469878e-01
2.314727e-01
2.156748e-01
1.997003e-01
1.836275e-01
1.674988e-01
1.513606e-01
1.352964e-01
1.192759e-01
1.021026e-01
8.839594e-02
3.074388e-01
3.302745e-01
3.520170e-01
3.725362e-01
3.917181e-01
4.094828e-01
4.257748e-01
4.405410e-01
4.537412e-01
4.653758e-01
4.754531e-01
4.839323e-01
4.907487e-01
4.957979e-01
4.989333e-01
8.837311e-02
1.112272e-01
1.354909e-01
1.608920e-01
1.869386e-01
2.131133e-01
2.390465e-01
2.644476e-01
2.891060e-01
3.128745e-01
3.356212e-01
3.572031e-01
3.774836e-01
3.963583e-01
4.137644e-01
4.296536e-01
4.439890e-01
4.567556e-01
4.679500e-01
4.775482e-01
4.855116e-01
4.917973e-01
4.963448e-01
4.990898e-01
8.952395e-02
1.136857e-01
1.390918e-01
1.653614e-01
1.919964e-01
2.185367e-01
2.446398e-01
2.700687e-01
2.946818e-01
3.183957e-01
3.410583e-01
3.624789e-01
3.825064e-01
4.010353e-01
4.180343e-01
4.334697e-01
4.473353e-01
4.596265e-01
4.703308e-01
4.794082e-01
4.868489e-01
4.926450e-01
4.967670e-01
4.992056e-01
9.134140e-02
1.170485e-01
1.436216e-01
1.706247e-01
1.977482e-01
2.245763e-01
2.506717e-01
2.759295e-01
3.004229e-01
3.241712e-01
3.467963e-01
3.680366e-01
3.877882e-01
4.058948e-01
4.223933e-01
4.372721e-01
4.506464e-01
4.624409e-01
4.726052e-01
4.811010e-01
4.880258e-01
4.933935e-01
4.971476e-01
4.993136e-01
9.424265e-02
1.219833e-01
1.494082e-01
1.767250e-01
2.044509e-01
2.315775e-01
2.571858e-01
2.817350e-01
3.063277e-01
3.305435e-01
3.530532e-01
3.739959e-01
3.935683e-01
4.111214e-01
4.268410e-01
4.409442e-01
4.540738e-01
4.653728e-01
4.748229e-01
4.825883e-01
4.890802e-01
4.941437e-01
3.402618e-01
3.204748e-01
2.979973e-01
2.863987e-01
2.724269e-01
2.574403e-01
2.419002e-01
2.260303e-01
2.099587e-01
1.937542e-01
1.774550e-01
1.610979e-01
1.447751e-01
1.287750e-01
1.138465e-01
9.831276e-02
4.975713e-01
4.994391e-01
1.004864e-01
1.305014e-01
1.552273e-01
1.834910e-01
2.127825e-01
2.403993e-01
2.638586e-01
2.843555e-01
3.135682e-01
3.381389e-01
3.598480e-01
3.800800e-01
4.007336e-01
4.173378e-01
4.302875e-01
4.441858e-01
4.583671e-01
4.689325e-01
4.764285e-01
4.837175e-01
4.899988e-01
4.951014e-01
4.981993e-01
4.995388e-01
4.994915e-01
4.992172e-01
4.977640e-01
4.995144e-01
4.986180e-01
4.968710e-01
4.946347e-01
4.992037e-01
4.977067e-01
4.956838e-01
4.930514e-01
4.899996e-01
4.985283e-01
4.967111e-01
4.942562e-01
4.912287e-01
4.876940e-01
4.837602e-01
4.992718e-01
4.971798e-01
4.953859e-01
4.926427e-01
4.892050e-01
4.852025e-01
4.807314e-01
4.758354e-01
4.663289e-01
4.989957e-01
4.968677e-01
4.940476e-01
4.908929e-01
4.870389e-01
4.825625e-01
4.775684e-01
4.721486e-01
4.555622e-01
4.994826e-01
4.984382e-01
4.961480e-01
4.929613e-01
4.891597e-01
4.848056e-01
4.798314e-01
4.742962e-01
4.683100e-01
4.620124e-01
4.435807e-01
4.992022e-01
4.975707e-01
4.951436e-01
4.917062e-01
4.874646e-01
4.825729e-01
4.770709e-01
4.709788e-01
4.643705e-01
4.574091e-01
4.503663e-01
4.986599e-01
4.967512e-01
4.939749e-01
4.902854e-01
4.856971e-01
4.803455e-01
4.743269e-01
4.676842e-01
4.604557e-01
4.527110e-01
4.447589e-01
4.370848e-01
4.296410e-01
4.130398e-01
4.994099e-01
4.975955e-01
4.957587e-01
4.927781e-01
4.887907e-01
4.838680e-01
4.781054e-01
4.716134e-01
4.644572e-01
4.566633e-01
4.482474e-01
4.390497e-01
4.301169e-01
4.222607e-01
3.487314e-01
3.647004e-01
4.992181e-01
4.975984e-01
4.949502e-01
4.916491e-01
4.873422e-01
4.820547e-01
4.758787e-01
4.689319e-01
4.613092e-01
4.530182e-01
4.440652e-01
4.345381e-01
4.216837e-01
4.139042e-01
4.073343e-01
3.897177e-01
6.660000e-02
6.660000e-02
6.660000e-02
6.660000e-02
6.660000e-02
6.660000e-02
6.660000e-02
6.660000e-02
6.660000e-02
6.660000e-02
6.660000e-02
6.660000e-02
6.660000e-02
6.660000e-02
6.660000e-02
6.660000e-02
6.660000e-02
6.660000e-02
6.660000e-02
6.660000e-02
6.660000e-02
6.660000e-02
6.660000e-02
6.660000e-02
6.660000e-02
6.660000e-02
6.660000e-02
6.660000e-02
6.660000e-02
6.660000e-02
6.660000e-02
6.660000e-02
6.660000e-02
6.660000e-02
6.660000e-02
6.660000e-02
6.660000e-02
6.660000e-02
6.660000e-02
6.660000e-02
6.660000e-02
6.660000e-02
6.660000e-02
6.660000e-02
6.660000e-02
6.660000e-02
6.660000e-02
6.660000e-02
6.660000e-02
6.660000e-02
6.660000e-02
6.660000e-02
6.660000e-02
6.660000e-02
6.660000e-02
6.660000e-02
6.660000e-02
6.660000e-02
6.660000e-02
6.660000e-02
6.660000e-02
6.660000e-02
6.660000e-02
6.660000e-02
6.660000e-02
6.660000e-02
6.660000e-02
6.660000e-02
6.660000e-02
6.660000e-02
6.660000e-02
6.660000e-02
6.660000e-02
6.660000e-02
6.660000e-02
6.660000e-02
6.660000e-02
6.660000e-02
6.660000e-02
6.660000e-02
6.660000e-02
6.660000e-02
6.660000e-02
6.660000e-02
6.660000e-02
6.660000e-02
6.660000e-02
6.660000e-02
6.660000e-02
6.660000e-02
6.660000e-02
6.660000e-02
6.660000e-02
6.660000e-02
6.660000e-02
6.660000e-02
6.660000e-02
6.660000e-02
6.660000e-02
6.660000e-02
6.660000e-02
6.660000e-02
6.660000e-02
6.660000e-02
6.660000e-02
6.660000e-02
6.660000e-02
6.660000e-02
6.660000e-02
6.660000e-02
6.660000e-02
6.660000e-02
6.660000e-02
6.660000e-02
6.660000e-02
6.660000e-02
6.660000e-02
6.660000e-02
6.660000e-02
6.660000e-02
6.660000e-02
6.660000e-02
6.660000e-02
6.660000e-02
6.660000e-02
6.660000e-02
6.660000e-02
6.660000e-02
6.660000e-02
6.660000e-02
6.660000e-02
6.660000e-02
6.660000e-02
6.660000e-02
6.660000e-02
6.660000e-02
6.660000e-02
6.660000e-02
6.660000e-02
6.660000e-02
6.660000e-02
6.660000e-02
6.660000e-02
6.660000e-02
6.660000e-02
6.660000e-02
6.660000e-02
6.660000e-02
6.660000e-02
6.660000e-02
6.660000e-02
6.660000e-02
6.660000e-02
6.660000e-02
6.660000e-02
6.660000e-02
6.660000e-02
6.660000e-02
6.660000e-02
6.660000e-02
6.660000e-02
6.660000e-02
6.660000e-02
6.660000e-02
6.660000e-02
6.660000e-02
6.660000e-02
6.660000e-02
6.660000e-02
6.660000e-02
6.660000e-02
6.660000e-02
6.660000e-02
6.660000e-02
6.660000e-02
6.660000e-02
6.660000e-02
6.660000e-02
6.660000e-02
6.660000e-02
6.660000e-02
6.660000e-02
6.660000e-02
6.660000e-02
6.660000e-02
6.660000e-02
6.660000e-02
6.660000e-02
6.660000e-02
6.660000e-02
6.660000e-02
6.660000e-02
6.660000e-02
6.660000e-02
6.660000e-02
6.660000e-02
6.660000e-02
6.660000e-02
6.660000e-02
6.660000e-02
6.660000e-02
6.660000e-02
6.660000e-02
6.660000e-02
6.660000e-02
6.660000e-02
6.660000e-02
6.660000e-02
6.660000e-02
6.660000e-02
6.660000e-02
6.660000e-02
6.660000e-02
6.660000e-02
6.660000e-02
6.660000e-02
6.660000e-02
6.660000e-02
6.660000e-02
6.660000e-02
6.660000e-02
6.660000e-02
6.660000e-02
6.660000e-02
6.660000e-02
6.660000e-02
6.660000e-02
6.660000e-02
6.660000e-02
6.660000e-02
6.660000e-02
6.660000e-02
6.660000e-02
6.660000e-02
6.660000e-02
6.660000e-02
6.660000e-02
6.660000e-02
6.660000e-02
6.660000e-02
6.660000e-02
6.660000e-02
6.660000e-02
6.660000e-02
6.660000e-02
6.660000e-02
6.660000e-02
6.660000e-02
6.660000e-02
6.660000e-02
6.660000e-02
6.660000e-02
6.660000e-02
6.660000e-02
6.660000e-02
6.660000e-02
6.660000e-02
6.660000e-02
6.660000e-02
6.660000e-02
6.660000e-02
6.660000e-02
6.660000e-02
6.660000e-02
6.660000e-02
6.660000e-02
6.660000e-02
6.660000e-02
6.660000e-02
6.660000e-02
6.660000e-02
6.660000e-02
6.660000e-02
6.660000e-02
6.660000e-02
6.660000e-02
6.660000e-02
6.660000e-02
6.660000e-02
6.660000e-02
6.660000e-02
6.660000e-02
6.660000e-02
6.660000e-02
6.660000e-02
6.660000e-02
6.660000e-02
6.660000e-02
6.660000e-02
6.660000e-02
6.660000e-02
6.660000e-02
6.660000e-02
6.660000e-02
6.660000e-02
6.660000e-02
6.660000e-02
6.660000e-02
6.660000e-02
6.660000e-02
6.660000e-02
6.660000e-02
6.660000e-02
6.660000e-02
6.660000e-02
6.660000e-02
6.660000e-02
6.660000e-02
6.660000e-02
6.660000e-02
6.660000e-02
6.660000e-02
6.660000e-02
6.660000e-02
6.660000e-02
6.660000e-02
6.660000e-02
6.660000e-02
6.660000e-02
6.660000e-02
6.660000e-02
6.660000e-02
6.660000e-02
6.660000e-02
6.660000e-02
6.660000e-02
6.660000e-02
6.660000e-02
6.660000e-02
6.660000e-02
6.660000e-02
6.660000e-02
6.660000e-02
6.660000e-02
6.660000e-02
6.660000e-02
6.660000e-02
6.660000e-02
6.660000e-02
6.660000e-02
6.660000e-02
6.660000e-02
6.660000e-02
6.660000e-02
6.660000e-02
6.660000e-02
6.660000e-02
6.660000e-02
6.660000e-02
6.660000e-02
6.660000e-02
6.660000e-02
6.660000e-02
6.660000e-02
6.660000e-02
6.660000e-02
6.660000e-02
6.660000e-02
6.660000e-02
6.660000e-02
6.660000e-02
6.660000e-02
6.660000e-02
6.660000e-02
6.660000e-02
6.660000e-02
6.660000e-02
6.660000e-02
6.660000e-02
6.660000e-02
2.166000e-01
2.166000e-01
2.166000e-01
2.166000e-01
2.166000e-01
2.166000e-01
2.166000e-01
2.166000e-01
2.166000e-01
2.166000e-01
2.166000e-01
2.166000e-01
2.166000e-01
2.166000e-01
2.166000e-01
2.166000e-01
2.166000e-01
2.166000e-01
2.166000e-01
2.166000e-01
2.166000e-01
2.166000e-01
2.166000e-01
2.166000e-01
2.166000e-01
2.166000e-01
2.166000e-01
2.166000e-01
2.166000e-01
2.166000e-01
2.166000e-01
2.166000e-01
2.166000e-01
1.702646e-01
1.630946e-01
1.811203e-01
1.672225e-01
1.731551e-01
1.591874e-01
1.585548e-01
1.523546e-01
1.478366e-01
1.733955e-01
1.675612e-01
1.618897e-01
1.730337e-01
1.610118e-01
1.707920e-01
8.394583e-02
2.148725e-01
2.121505e-01
2.063188e-01
2.089104e-01
2.068870e-01
2.013265e-01
2.071033e-01
2.034557e-01
1.997859e-01
2.003549e-01
1.958627e-01
1.911767e-01
1.963339e-01
1.914142e-01
1.867119e-01
1.811696e-01
2.136947e-01
1.915062e-01
1.861159e-01
1.806411e-01
1.772425e-01
1.699266e-01
1.679706e-01
1.725325e-01
1.603589e-01
1.869684e-01
1.770239e-01
2.158510e-01
1.652200e-01
1.508201e-01
1.576013e-01
1.516583e-01
1.451623e-01
1.399172e-01
1.375204e-01
1.428782e-01
1.363011e-01
1.311199e-01
1.272359e-01
1.331406e-01
1.253232e-01
1.214580e-01
1.173336e-01
1.141785e-01
1.111205e-01
1.075702e-01
1.005687e-01
9.793091e-02
8.752262e-02
1.259647e-01
1.099874e-01
9.727552e-02
8.707763e-02
7.634021e-02
2.064400e-01
2.014168e-01
2.159462e-01
2.136193e-01
2.150561e-01
2.099238e-01
2.119121e-01
2.074953e-01
2.018729e-01
2.105563e-01
2.134873e-01
2.156992e-01
1.030283e-01
9.072699e-02
7.754214e-02
1.025727e-01
8.804293e-02
7.467789e-02
2.062829e-01
2.012598e-01
2.159598e-01
2.136447e-01
2.150216e-01
2.099506e-01
2.118454e-01
2.073742e-01
2.016995e-01
1.025747e-01
9.052074e-02
7.748624e-02
1.032456e-01
8.849413e-02
7.482545e-02
2.159362e-01
2.135534e-01
2.148619e-01
2.097888e-01
2.115001e-01
2.069994e-01
2.016315e-01
1.038107e-01
9.125729e-02
7.758705e-02
2.157227e-01
2.126048e-01
2.090734e-01
2.066278e-01
2.030653e-01
2.017655e-01
1.936864e-01
1.029683e-01
8.917647e-02
7.558251e-02
1.292719e-01
1.153570e-01
1.011924e-01
8.579036e-02
7.457379e-02
2.071702e-01
2.024479e-01
2.159678e-01
2.136996e-01
2.150573e-01
2.101344e-01
2.119574e-01
2.074738e-01
2.020283e-01
1.054648e-01
9.263600e-02
7.870963e-02
1.031919e-01
8.892511e-02
2.004058e-01
2.054361e-01
2.093456e-01
2.126388e-01
7.516196e-02
2.159998e-01
2.138216e-01
2.105971e-01
1.055380e-01
9.295949e-02
7.805220e-02
2.053488e-01
2.000104e-01
2.158213e-01
2.133650e-01
2.148143e-01
2.094275e-01
2.112259e-01
2.038010e-01
2.060412e-01
1.966631e-01
1.998117e-01
1.253630e-01
1.122577e-01
9.909299e-02
8.738246e-02
7.591285e-02
1.002848e-01
8.644258e-02
7.415984e-02
2.158472e-01
2.132348e-01
2.146067e-01
2.091776e-01
2.110439e-01
2.065334e-01
2.010299e-01
1.910313e-01
1.016692e-01
9.047890e-02
7.707942e-02
2.161335e-01
2.135012e-01
2.094219e-01
2.065209e-01
2.030252e-01
2.015417e-01
1.932468e-01
1.031889e-01
8.865662e-02
7.532707e-02
1.286887e-01
1.149292e-01
1.009770e-01
8.567366e-02
7.450570e-02
2.062628e-01
2.012298e-01
2.158999e-01
2.135715e-01
2.149728e-01
2.099839e-01
2.117046e-01
2.069911e-01
2.013257e-01
1.048140e-01
9.218682e-02
7.848463e-02
1.017090e-01
8.802565e-02
7.477638e-02
2.065952e-01
2.016064e-01
2.159334e-01
1.828167e-01
2.135716e-01
2.150118e-01
2.098415e-01
2.118497e-01
2.073988e-01
2.017215e-01
1.031101e-01
9.062842e-02
7.723754e-02
1.008245e-01
8.740070e-02
7.451028e-02
2.159293e-01
2.135450e-01
2.147777e-01
2.098675e-01
2.111649e-01
2.060533e-01
2.004146e-01
1.017720e-01
9.034974e-02
7.697696e-02
2.158643e-01
2.139035e-01
2.110702e-01
2.058595e-01
2.058394e-01
2.008201e-01
1.963875e-01
1.019847e-01
8.780124e-02
7.478696e-02
1.329654e-01
1.189975e-01
1.016859e-01
8.820316e-02
7.657250e-02
2.158911e-01
2.134057e-01
2.145748e-01
1.977891e-01
2.032838e-01
2.077580e-01
2.112357e-01
2.134392e-01
2.156892e-01
2.095309e-01
2.110049e-01
2.062681e-01
2.008269e-01
1.016791e-01
8.980366e-02
7.729943e-02
2.160323e-01
2.129627e-01
2.073144e-01
2.023512e-01
1.957321e-01
1.025942e-01
8.846692e-02
7.488973e-02
7.854172e-02
2.114197e-01
2.092318e-01
2.052681e-01
2.047750e-01
1.984649e-01
1.970625e-01
1.991709e-01
1.911894e-01
1.819122e-01
1.859441e-01
1.903396e-01
1.928626e-01
1.732728e-01
1.792184e-01
1.841224e-01
1.837523e-01
1.581267e-01
1.462795e-01
1.366837e-01
1.270840e-01
1.167706e-01
1.051984e-01
9.411555e-02
8.691288e-02
7.777025e-02
9.280506e-02
9.830149e-02
1.081968e-01
1.088115e-01
1.247591e-01
1.214220e-01
1.188879e-01
1.361283e-01
1.323750e-01
1.294936e-01
1.393574e-01
1.504807e-01
1.459868e-01
1.422431e-01
1.634623e-01
1.594881e-01
1.547480e-01
1.512826e-01
1.490334e-01
1.781267e-01
1.588307e-01
1.680160e-01
1.729609e-01
2.149187e-01
7.697820e-02
2.154133e-01
2.151712e-01
2.137177e-01
2.117593e-01
2.160437e-01
2.066205e-01
2.039860e-01
2.007988e-01
1.830719e-01
1.887712e-01
1.952126e-01
2.011886e-01
2.060996e-01
2.100148e-01
2.131023e-01
2.153328e-01
2.160203e-01
2.147106e-01
2.122571e-01
2.090245e-01
1.884501e-01
2.157511e-01
2.139130e-01
2.111781e-01
2.073826e-01
2.030001e-01
1.985264e-01
1.940236e-01
2.162229e-01
2.151775e-01
2.125298e-01
2.104261e-01
2.052855e-01
2.004664e-01
1.958482e-01
1.919626e-01
1.842742e-01
1.782495e-01
8.286701e-02
7.472223e-02
1.045129e-01
9.592580e-02
8.507453e-02
7.711659e-02
1.086141e-01
9.450949e-02
1.429598e-01
1.357889e-01
1.251800e-01
1.113131e-01
9.985900e-02
9.022659e-02
8.141849e-02
7.500572e-02
1.269817e-01
1.155321e-01
2.039966e-01
1.966569e-01
1.886338e-01
1.786013e-01
1.669475e-01
1.538662e-01
1.400004e-01
2.158747e-01
2.139937e-01
2.101069e-01
2.037490e-01
1.955100e-01
1.852949e-01
1.742942e-01
1.623833e-01
1.502056e-01
1.393696e-01
1.267739e-01
1.162121e-01
1.041602e-01
9.039062e-02
7.917816e-02
1.564299e-01
1.477085e-01
1.371831e-01
1.250188e-01
1.138143e-01
1.037498e-01
9.450857e-02
8.632283e-02
7.795917e-02
7.480061e-02
1.911275e-01
1.828505e-01
1.720749e-01
1.592241e-01
9.628050e-02
8.998079e-02
7.895003e-02
1.431347e-01
1.291177e-01
1.150289e-01
1.002997e-01
8.698045e-02
7.666778e-02
2.039085e-01
1.964639e-01
1.881903e-01
1.777027e-01
1.659544e-01
1.532214e-01
1.397455e-01
1.256091e-01
1.130363e-01
9.945356e-02
2.157979e-01
2.140155e-01
2.102411e-01
2.044398e-01
1.956589e-01
1.836965e-01
1.720532e-01
1.595987e-01
1.467561e-01
1.345711e-01
2.157485e-01
2.130241e-01
2.089879e-01
2.043362e-01
1.976358e-01