VARIABLES = "X" "Y" "Z" "FREF"
ZONE T="instant 079"
STRANDID=0, SOLUTIONTIME=0
Nodes=3151, Elements=6298
ZONETYPE=FETriangle
DATAPACKING=BLOCK
VARLOCATION = ([1-3]=NODAL, [4]=CELLCENTERED)
5.000000e-01
2.464490e-01
2.670812e-01
2.833040e-01
2.970016e-01
3.129170e-01
3.292403e-01
3.457812e-01
3.631979e-01
3.811748e-01
3.980142e-01
4.125723e-01
4.257180e-01
4.377436e-01
4.486541e-01
4.581988e-01
4.662125e-01
4.722641e-01
4.777778e-01
4.835467e-01
4.885826e-01
4.925736e-01
4.955137e-01
4.976727e-01
4.990846e-01
4.998293e-01
2.304000e-01
2.304000e-01
2.304000e-01
2.304000e-01
2.304000e-01
2.304000e-01
2.304000e-01
2.304000e-01
2.304000e-01
2.304000e-01
2.304000e-01
2.304000e-01
3.798626e-01
3.786733e-01
3.753984e-01
3.699825e-01
3.628426e-01
3.579477e-01
3.517214e-01
3.434399e-01
3.357783e-01
3.283382e-01
3.201160e-01
3.103072e-01
3.023397e-01
2.948343e-01
2.877146e-01
2.785202e-01
2.691997e-01
2.625729e-01
2.536090e-01
2.425024e-01
3.804000e-01
4.890962e-01
4.773712e-01
4.664774e-01
4.556334e-01
4.439571e-01
4.321571e-01
4.208360e-01
4.097971e-01
3.990532e-01
3.892119e-01
4.067602e-01
2.738499e-01
2.622650e-01
4.176304e-01
4.001644e-01
2.802657e-01
2.902738e-01
2.714792e-01
2.912509e-01
2.501551e-01
2.928999e-01
2.788698e-01
2.965307e-01
3.075963e-01
4.899168e-01
3.203078e-01
3.341897e-01
3.140517e-01
3.233150e-01
3.673456e-01
3.763290e-01
4.075050e-01
3.907875e-01
3.893236e-01
4.150521e-01
4.219315e-01
4.051653e-01
4.852466e-01
4.786488e-01
4.146774e-01
4.261156e-01
4.200408e-01
4.351833e-01
4.286958e-01
4.376086e-01
3.883944e-01
4.053907e-01
3.966504e-01
3.818509e-01
2.723489e-01
2.578114e-01
2.441011e-01
2.481737e-01
2.478419e-01
2.646554e-01
2.805761e-01
2.486255e-01
2.649912e-01
2.813033e-01
2.973700e-01
2.400876e-01
2.510732e-01
2.661326e-01
2.823686e-01
4.877162e-01
2.987559e-01
3.139070e-01
3.156630e-01
3.304038e-01
3.186698e-01
3.311468e-01
3.461888e-01
2.465574e-01
2.649955e-01
2.832665e-01
3.022869e-01
2.968000e-01
2.970605e-01
3.054609e-01
3.142872e-01
3.311816e-01
3.444495e-01
3.531544e-01
3.633507e-01
2.474241e-01
2.642318e-01
2.817287e-01
3.027482e-01
3.166197e-01
3.287949e-01
3.429869e-01
3.324050e-01
3.428334e-01
3.465758e-01
3.579567e-01
3.696811e-01
3.832690e-01
3.108531e-01
3.227897e-01
3.362644e-01
3.577884e-01
4.839193e-01
4.762623e-01
4.721878e-01
4.656247e-01
3.712170e-01
3.841784e-01
3.981238e-01
3.167202e-01
3.474729e-01
3.599589e-01
3.722182e-01
3.846847e-01
3.975151e-01
4.114361e-01
3.300387e-01
3.419688e-01
3.559749e-01
3.614657e-01
3.746429e-01
3.876261e-01
4.798192e-01
4.713219e-01
4.651372e-01
4.586710e-01
4.536472e-01
3.966793e-01
4.091350e-01
4.232735e-01
3.718694e-01
3.877820e-01
4.049653e-01
4.191234e-01
4.340728e-01
3.350592e-01
3.479821e-01
3.600981e-01
3.744100e-01
4.012968e-01
4.163416e-01
4.298380e-01
4.441980e-01
3.868258e-01
4.008912e-01
4.131561e-01
4.271004e-01
4.397003e-01
4.532853e-01
4.445714e-01
4.528116e-01
3.507601e-01
3.632694e-01
3.751153e-01
3.886117e-01
4.005328e-01
4.129934e-01
4.235325e-01
4.370909e-01
4.484336e-01
4.615105e-01
4.245833e-01
4.302007e-01
4.746085e-01
4.660372e-01
4.596840e-01
4.519051e-01
4.475758e-01
4.412416e-01
4.349912e-01
4.333939e-01
4.406056e-01
4.461876e-01
4.528091e-01
4.596944e-01
4.684477e-01
2.304000e-01
4.997651e-01
4.982937e-01
4.958550e-01
4.927187e-01
4.875765e-01
4.815591e-01
4.736708e-01
4.635601e-01
4.511917e-01
4.384033e-01
4.265929e-01
4.137855e-01
4.004414e-01
3.861110e-01
3.734423e-01
3.628060e-01
3.520550e-01
3.397199e-01
3.264097e-01
3.128074e-01
2.990451e-01
2.849490e-01
2.707253e-01
2.563094e-01
2.424705e-01
5.000000e-01
3.891641e-01
3.993070e-01
4.094840e-01
4.211819e-01
4.320663e-01
4.431080e-01
4.549860e-01
4.676333e-01
4.793339e-01
4.903524e-01
3.804000e-01
2.404050e-01
2.502391e-01
2.627418e-01
2.789478e-01
2.905074e-01
3.012653e-01
3.117592e-01
3.214808e-01
3.295222e-01
3.351642e-01
3.426578e-01
3.495152e-01
3.547977e-01
3.589267e-01
3.627132e-01
3.680505e-01
3.720018e-01
3.742068e-01
3.763410e-01
3.784246e-01
3.799497e-01
2.304000e-01
2.304000e-01
2.304000e-01
2.304000e-01
2.304000e-01
2.304000e-01
2.304000e-01
2.304000e-01
2.304000e-01
2.304000e-01
2.304000e-01
4.098309e-01
4.303299e-01
2.632709e-01
2.925259e-01
2.824369e-01
3.863617e-01
3.898847e-01
4.012814e-01
3.993944e-01
4.138561e-01
4.136075e-01
4.195606e-01
4.044339e-01
4.440017e-01
2.442798e-01
4.352895e-01
4.209734e-01
4.366570e-01
4.111664e-01
4.294353e-01
4.208936e-01
4.411245e-01
4.325049e-01
2.465837e-01
2.979433e-01
2.654564e-01
2.592959e-01
2.482599e-01
2.902897e-01
3.133782e-01
2.774286e-01
3.112654e-01
2.946641e-01
3.176874e-01
3.048842e-01
3.268402e-01
3.363088e-01
2.545652e-01
3.895081e-01
2.454687e-01
2.561853e-01
2.740025e-01
3.824158e-01
3.930174e-01
4.006476e-01
4.878193e-01
4.754329e-01
4.824635e-01
4.847804e-01
4.576170e-01
4.637562e-01
4.684581e-01
4.728867e-01
2.731796e-01
2.620601e-01
2.462248e-01
4.790018e-01
4.557237e-01
4.598468e-01
4.645818e-01
4.745872e-01
4.479999e-01
4.504543e-01
4.632399e-01
4.686702e-01
3.806245e-01
3.852830e-01
3.929162e-01
4.351350e-01
4.450170e-01
4.573561e-01
4.257426e-01
4.380566e-01
4.421556e-01
4.478902e-01
4.505771e-01
4.524558e-01
4.558057e-01
3.701143e-01
3.978519e-01
4.091272e-01
4.224840e-01
4.299872e-01
4.380452e-01
4.456329e-01
3.734143e-01
3.764592e-01
3.835265e-01
4.131184e-01
4.221510e-01
2.874030e-01
2.767879e-01
4.279194e-01
4.341068e-01
3.580472e-01
3.876610e-01
3.947482e-01
4.061825e-01
4.125348e-01
4.169206e-01
4.222320e-01
3.618847e-01
3.637421e-01
3.697378e-01
3.947308e-01
4.016028e-01
4.052688e-01
4.099823e-01
3.710999e-01
3.004586e-01
2.883091e-01
2.749951e-01
2.603649e-01
2.443752e-01
3.755706e-01
3.856710e-01
3.901111e-01
3.927637e-01
3.970414e-01
3.418581e-01
3.459813e-01
3.467283e-01
3.530914e-01
3.728424e-01
3.768599e-01
3.798471e-01
3.838011e-01
3.531166e-01
3.568615e-01
3.583697e-01
3.639579e-01
3.675847e-01
3.701764e-01
2.470008e-01
2.633381e-01
2.837211e-01
2.982886e-01
3.117331e-01
3.260093e-01
3.398826e-01
3.211825e-01
3.234143e-01
3.330797e-01
3.363719e-01
3.348796e-01
3.409260e-01
3.455099e-01
3.537234e-01
3.535387e-01
3.547643e-01
3.138469e-01
3.016151e-01
2.894359e-01
2.764991e-01
2.616311e-01
2.459582e-01
3.164869e-01
3.278564e-01
3.401991e-01
2.933759e-01
3.038183e-01
3.150701e-01
3.272335e-01
5.000000e-01
5.000000e-01
5.000000e-01
5.000000e-01
5.000000e-01
5.000000e-01
5.000000e-01
5.000000e-01
5.000000e-01
5.000000e-01
5.000000e-01
5.000000e-01
5.000000e-01
5.000000e-01
5.000000e-01
5.000000e-01
5.000000e-01
5.000000e-01
5.000000e-01
5.000000e-01
5.000000e-01
5.000000e-01
5.000000e-01
5.000000e-01
5.000000e-01
5.000000e-01
5.000000e-01
5.000000e-01
5.000000e-01
5.000000e-01
5.000000e-01
5.000000e-01
5.000000e-01
2.304000e-01
2.304000e-01
2.304000e-01
2.304000e-01
2.304000e-01
2.304000e-01
2.304000e-01
2.304000e-01
2.304000e-01
2.304000e-01
2.304000e-01
2.304000e-01
2.304000e-01
2.304000e-01
2.304000e-01
2.304000e-01
2.304000e-01
2.304000e-01
2.304000e-01
2.304000e-01
2.304000e-01
2.304000e-01
2.304000e-01
2.304000e-01
2.304000e-01
2.304000e-01
2.304000e-01
2.304000e-01
2.304000e-01
2.304000e-01
2.304000e-01
2.304000e-01
2.304000e-01
3.940312e-01
4.024604e-01
3.989527e-01
4.071314e-01
4.157385e-01
4.349633e-01
4.211074e-01
4.271420e-01
3.649717e-01
3.727264e-01
3.788693e-01
3.800882e-01
3.860679e-01
3.907407e-01
3.954954e-01
4.146137e-01
4.010342e-01
3.940484e-01
4.070936e-01
4.199892e-01
3.872698e-01
3.872621e-01
2.534837e-01
2.443063e-01
3.987918e-01
4.117735e-01
4.247267e-01
4.107254e-01
4.191402e-01
4.277665e-01
4.223655e-01
4.301913e-01
4.333048e-01
4.496805e-01
4.240233e-01
4.335545e-01
4.198174e-01
4.381649e-01
4.264470e-01
4.139650e-01
4.423810e-01
4.313955e-01
4.207372e-01
4.097977e-01
4.419564e-01
4.502969e-01
4.473154e-01
4.392281e-01
4.322452e-01
2.714866e-01
2.602215e-01
2.474133e-01
4.061275e-01
4.140305e-01
4.207634e-01
4.002284e-01
4.080596e-01
3.944253e-01
2.438897e-01
2.540407e-01
2.563762e-01
2.663865e-01
2.692303e-01
2.770889e-01
2.796276e-01
2.825085e-01
2.832127e-01
2.893164e-01
2.928963e-01
2.960473e-01
2.969771e-01
3.024099e-01
3.063375e-01
3.097265e-01
3.051773e-01
3.109852e-01
3.159301e-01
3.199190e-01
3.234509e-01
3.145914e-01
3.197953e-01
3.250262e-01
3.296414e-01
3.335429e-01
3.371165e-01
3.234568e-01
2.879069e-01
2.770755e-01
2.654788e-01
2.534039e-01
2.449834e-01
3.289281e-01
3.341194e-01
3.390283e-01
3.434054e-01
3.470778e-01
3.505980e-01
3.373554e-01
3.431837e-01
3.482440e-01
3.529377e-01
3.571646e-01
3.603377e-01
3.637478e-01
3.449657e-01
3.515949e-01
3.574931e-01
3.621122e-01
3.667035e-01
3.710206e-01
3.729571e-01
3.764412e-01
3.524226e-01
3.592219e-01
3.658852e-01
3.719870e-01
3.754086e-01
3.803208e-01
3.856285e-01
3.839801e-01
3.890682e-01
3.992670e-01
4.307117e-01
3.830749e-01
3.948760e-01
4.076218e-01
3.038825e-01
2.937492e-01
2.828841e-01
2.718248e-01
2.616657e-01
2.517648e-01
4.203141e-01
3.747830e-01
3.878024e-01
4.013387e-01
4.144582e-01
4.260911e-01
4.367803e-01
4.013943e-01
4.087003e-01
4.135513e-01
4.181407e-01
4.221524e-01
4.273292e-01
4.325985e-01
4.376548e-01
4.378927e-01
4.404972e-01
4.434284e-01
4.453954e-01
4.474726e-01
4.500503e-01
4.275519e-01
4.339631e-01
4.394804e-01
4.446980e-01
4.497061e-01
4.538134e-01
4.563792e-01
4.374758e-01
4.401906e-01
4.452357e-01
4.513605e-01
4.558723e-01
4.592730e-01
4.622355e-01
4.479096e-01
4.577079e-01
4.563634e-01
4.633625e-01
4.649601e-01
4.676640e-01
4.706960e-01
4.728695e-01
4.566991e-01
4.673786e-01
4.736185e-01
4.775349e-01
4.650809e-01
4.741717e-01
4.781563e-01
4.815237e-01
4.789166e-01
4.856275e-01
3.201101e-01
3.102187e-01
2.997748e-01
2.890920e-01
2.785339e-01
2.678278e-01
2.553718e-01
2.458662e-01
4.835164e-01
4.895272e-01
4.854715e-01
4.903538e-01
4.953949e-01
4.985665e-01
4.968052e-01
4.945343e-01
4.942179e-01
4.918583e-01
4.906917e-01
4.911672e-01
4.862985e-01
4.868715e-01
4.876660e-01
4.886682e-01
4.810856e-01
4.816410e-01
4.825345e-01
4.836735e-01
4.849842e-01
4.754518e-01
4.764381e-01
4.777176e-01
4.792287e-01
4.808671e-01
4.744249e-01
4.763888e-01
4.682334e-01
4.693566e-01
4.707649e-01
4.724897e-01
4.600452e-01
4.612862e-01
4.627786e-01
4.647062e-01
4.670047e-01
4.693864e-01
4.715597e-01
4.511216e-01
4.522932e-01
4.537371e-01
4.557856e-01
4.585147e-01
4.615063e-01
4.641537e-01
4.660786e-01
4.321815e-01
4.329727e-01
4.425331e-01
4.436913e-01
4.455593e-01
4.488916e-01
4.524299e-01
4.565627e-01
4.574260e-01
4.604261e-01
4.341540e-01
4.432243e-01
4.281086e-01
2.754032e-01
2.974232e-01
2.850967e-01
3.020651e-01
2.961549e-01
3.179471e-01
3.138683e-01
3.077418e-01
3.382844e-01
3.309219e-01
3.364922e-01
3.265753e-01
3.163149e-01
3.058593e-01
2.953216e-01
2.846164e-01
2.734581e-01
2.627550e-01
2.522177e-01
3.251153e-01
3.190996e-01
3.560944e-01
3.486459e-01
3.420536e-01
3.360231e-01
3.301409e-01
3.657176e-01
3.587778e-01
3.525073e-01
3.466056e-01
3.408602e-01
3.820321e-01
3.749510e-01
3.685093e-01
3.625763e-01
3.568957e-01
3.512621e-01
3.972464e-01
3.904198e-01
3.838725e-01
3.779456e-01
3.723893e-01
3.669254e-01
3.613208e-01
4.109610e-01
4.052272e-01
3.984562e-01
3.925911e-01
3.871915e-01
3.820472e-01
3.766565e-01
3.709438e-01
4.222415e-01
4.201839e-01
4.120568e-01
4.064694e-01
4.011057e-01
3.964686e-01
3.915507e-01
3.858503e-01
3.800700e-01
4.560458e-01
4.484084e-01
4.387706e-01
4.278490e-01
4.157186e-01
4.025963e-01
3.887326e-01
4.462992e-01
4.357526e-01
4.238949e-01
4.103795e-01
3.968984e-01
2.445226e-01
2.431404e-01
2.457082e-01
2.593074e-01
2.550851e-01
2.630539e-01
2.741016e-01
2.440645e-01
2.565328e-01
2.679031e-01
2.778429e-01
2.885181e-01
2.449258e-01
2.580177e-01
2.701692e-01
2.814577e-01
2.920618e-01
3.026688e-01
3.529913e-01
3.427800e-01
3.325391e-01
3.222586e-01
3.118776e-01
3.013260e-01
2.905214e-01
2.796129e-01
2.684047e-01
2.558247e-01
2.451715e-01
2.414937e-01
2.484714e-01
2.600952e-01
2.722125e-01
2.839751e-01
2.952261e-01
3.060707e-01
3.166568e-01
2.406776e-01
2.440788e-01
2.546590e-01
2.638244e-01
2.747795e-01
2.863218e-01
2.977963e-01
3.089968e-01
3.199393e-01
3.306018e-01
2.477413e-01
2.582207e-01
2.683579e-01
2.781706e-01
2.889692e-01
3.002330e-01
3.115169e-01
3.226438e-01
3.336220e-01
3.447031e-01
3.567292e-01
2.421360e-01
2.525406e-01
2.619964e-01
2.722225e-01
2.821136e-01
2.919262e-01
3.027778e-01
3.139097e-01
3.250562e-01
3.360620e-01
3.468890e-01
3.577170e-01
3.673835e-01
2.430602e-01
2.547179e-01
2.647720e-01
2.757243e-01
2.861812e-01
2.957651e-01
3.050702e-01
3.163467e-01
3.273059e-01
3.383784e-01
3.492259e-01
3.598216e-01
3.707282e-01
3.789344e-01
2.374405e-01
2.447925e-01
2.557156e-01
2.679761e-01
2.766678e-01
2.899134e-01
3.002500e-01
3.093785e-01
3.171551e-01
3.301784e-01
3.403090e-01
3.515362e-01
3.621227e-01
3.721879e-01
3.846915e-01
3.904022e-01
3.694785e-01
3.587056e-01
3.483576e-01
3.382644e-01
3.281211e-01
3.177941e-01
3.072194e-01
2.963924e-01
2.852125e-01
2.734338e-01
2.614376e-01
2.478176e-01
4.993215e-01
4.997633e-01
4.977048e-01
4.989058e-01
4.997016e-01
4.952526e-01
4.972140e-01
4.986815e-01
4.996462e-01
4.890279e-01
4.920971e-01
4.946906e-01
4.968392e-01
4.985023e-01
4.995981e-01
4.769373e-01
4.838481e-01
4.879818e-01
4.913019e-01
4.941243e-01
4.964821e-01
4.983232e-01
4.995472e-01
4.791695e-01
4.832552e-01
4.870621e-01
4.905050e-01
4.935285e-01
4.960858e-01
4.981046e-01
4.994742e-01
4.690452e-01
4.732525e-01
4.775871e-01
4.819303e-01
4.859589e-01
4.896100e-01
4.928348e-01
4.955772e-01
4.977649e-01
4.993050e-01
4.997084e-01
4.599936e-01
4.658319e-01
4.709801e-01
4.758728e-01
4.804778e-01
4.847243e-01
4.885698e-01
4.919655e-01
4.948423e-01
4.970975e-01
4.985957e-01
4.996132e-01
4.430215e-01
4.508121e-01
4.575207e-01
4.634483e-01
4.689366e-01
4.740924e-01
4.788991e-01
4.833231e-01
4.873282e-01
4.908670e-01
4.938827e-01
4.963262e-01
4.982343e-01
4.995249e-01
4.216994e-01
4.326223e-01
4.412151e-01
4.486589e-01
4.551624e-01
4.611835e-01
3.855210e-01
3.741356e-01
3.635580e-01
3.537755e-01
3.439795e-01
3.339580e-01
3.236478e-01
3.130247e-01
3.020424e-01
2.906212e-01
2.787903e-01
2.663980e-01
2.540038e-01
4.668584e-01
4.721852e-01
4.771393e-01
4.817008e-01
4.858383e-01
4.895251e-01
4.927657e-01
4.955677e-01
4.978889e-01
4.994342e-01
2.437784e-01
2.573796e-01
2.710956e-01
2.849454e-01
2.988975e-01
3.128935e-01
3.268593e-01
3.407115e-01
3.543653e-01
3.677597e-01
3.809073e-01
3.937994e-01
4.063486e-01
4.186353e-01
4.303524e-01
4.412921e-01
4.513348e-01
4.609450e-01
4.703735e-01
4.769450e-01
4.831546e-01
4.897186e-01
4.942855e-01
4.977721e-01
4.117583e-01
4.234888e-01
4.315750e-01
4.395549e-01
4.462685e-01
4.526801e-01
4.588325e-01
4.646500e-01
4.700790e-01
4.751331e-01
4.798025e-01
4.840185e-01
4.878427e-01
4.913845e-01
4.944970e-01
4.976894e-01
4.991486e-01
2.445069e-01
2.586988e-01
2.729749e-01
2.873187e-01
3.016967e-01
3.160565e-01
3.303332e-01
3.444576e-01
3.583664e-01
3.720116e-01
3.853502e-01
3.983218e-01
4.108579e-01
4.228809e-01
4.342742e-01
4.449686e-01
4.549182e-01
4.641189e-01
4.722977e-01
4.795124e-01
4.858669e-01
4.913732e-01
4.956871e-01
4.987099e-01
2.452183e-01
2.600379e-01
2.748778e-01
2.897342e-01
3.045704e-01
3.193306e-01
3.339496e-01
3.483613e-01
3.625030e-01
3.763147e-01
3.897345e-01
4.026942e-01
4.151228e-01
4.269489e-01
4.381053e-01
4.485347e-01
4.581776e-01
4.669649e-01
4.748350e-01
4.817929e-01
4.877968e-01
4.927781e-01
4.965983e-01
4.990920e-01
2.459392e-01
2.613976e-01
2.768531e-01
2.922778e-01
3.076136e-01
3.227944e-01
3.377541e-01
3.524277e-01
3.667520e-01
4.005972e-01
3.888609e-01
3.777529e-01
3.686621e-01
3.593825e-01
3.497608e-01
3.397815e-01
3.294389e-01
3.187264e-01
3.076260e-01
2.961312e-01
2.842092e-01
2.718469e-01
2.584518e-01
2.478948e-01
3.806641e-01
3.941007e-01
4.069967e-01
4.192874e-01
4.309115e-01
4.418140e-01
4.519416e-01
4.612406e-01
4.696640e-01
4.771774e-01
4.837481e-01
4.893228e-01
4.938339e-01
4.971906e-01
4.992835e-01
2.465934e-01
2.628247e-01
2.790191e-01
2.950833e-01
3.109426e-01
3.265345e-01
3.418019e-01
3.566889e-01
3.711383e-01
3.850938e-01
3.984989e-01
4.112932e-01
4.234140e-01
4.348046e-01
4.454195e-01
4.552134e-01
4.641436e-01
4.721767e-01
4.792850e-01
4.854299e-01
4.905641e-01
4.946392e-01
4.976020e-01
4.994002e-01
2.474572e-01
2.646348e-01
2.816427e-01
2.983517e-01
3.147003e-01
3.306478e-01
3.461545e-01
3.611837e-01
3.756905e-01
3.896359e-01
4.029728e-01
4.156353e-01
4.275517e-01
4.386644e-01
4.489512e-01
4.583738e-01
4.669001e-01
4.745103e-01
4.811902e-01
4.868990e-01
4.916040e-01
4.952832e-01
4.979146e-01
4.994844e-01
2.489649e-01
2.672095e-01
2.850052e-01
3.022707e-01
3.190188e-01
3.352276e-01
3.508565e-01
3.659238e-01
3.804042e-01
3.943095e-01
4.075678e-01
4.200817e-01
4.317625e-01
4.425286e-01
4.524380e-01
4.614377e-01
4.695310e-01
4.766961e-01
4.829416e-01
4.882065e-01
4.925011e-01
4.958300e-01
4.981791e-01
4.995570e-01
2.510979e-01
2.707857e-01
2.892926e-01
3.069177e-01
3.240275e-01
3.404127e-01
3.558951e-01
3.708060e-01
3.851806e-01
3.991720e-01
4.123470e-01
4.247012e-01
4.361686e-01
4.464471e-01
4.558859e-01
4.643554e-01
4.720961e-01
4.788058e-01
4.845859e-01
4.893488e-01
4.932836e-01
4.963372e-01
4.145189e-01
4.029728e-01
3.901851e-01
3.828724e-01
3.742926e-01
3.651495e-01
3.555667e-01
3.455616e-01
3.351641e-01
3.244021e-01
3.132831e-01
3.018011e-01
2.899766e-01
2.779160e-01
2.664134e-01
2.540126e-01
4.984462e-01
4.996370e-01
2.554300e-01
2.769402e-01
2.940866e-01
3.121611e-01
3.300889e-01
3.466960e-01
3.611131e-01
3.739303e-01
3.902271e-01
4.045113e-01
4.173250e-01
4.294497e-01
4.413124e-01
4.507950e-01
4.587329e-01
4.669268e-01
4.749884e-01
4.811942e-01
4.858361e-01
4.902151e-01
4.939500e-01
4.969275e-01
4.988433e-01
4.996978e-01
4.997041e-01
4.995871e-01
4.987146e-01
4.997277e-01
4.992939e-01
4.982868e-01
4.969483e-01
4.995924e-01
4.987277e-01
4.976559e-01
4.961388e-01
4.943635e-01
4.993470e-01
4.982753e-01
4.968486e-01
4.951620e-01
4.931402e-01
4.909129e-01
4.996089e-01
4.985393e-01
4.976164e-01
4.960271e-01
4.940504e-01
4.917929e-01
4.892736e-01
4.865618e-01
4.813684e-01
4.994762e-01
4.983303e-01
4.967368e-01
4.950439e-01
4.928705e-01
4.903339e-01
4.875350e-01
4.845364e-01
4.754564e-01
4.997241e-01
4.992143e-01
4.979465e-01
4.961542e-01
4.939914e-01
4.915914e-01
4.888064e-01
4.856976e-01
4.823790e-01
4.789461e-01
4.688086e-01
4.995648e-01
4.986569e-01
4.973798e-01
4.954643e-01
4.930605e-01
4.902945e-01
4.872290e-01
4.838255e-01
4.801254e-01
4.763121e-01
4.725133e-01
4.993014e-01
4.981930e-01
4.966384e-01
4.946229e-01
4.920596e-01
4.890419e-01
4.856541e-01
4.819440e-01
4.779236e-01
4.735708e-01
4.693095e-01
4.652215e-01
4.610532e-01
4.517541e-01
4.996508e-01
4.986227e-01
4.976011e-01
4.959049e-01
4.936773e-01
4.909538e-01
4.877409e-01
4.841025e-01
4.800787e-01
4.757344e-01
4.711281e-01
4.658950e-01
4.613532e-01
4.571329e-01
4.169514e-01
4.273806e-01
4.995310e-01
4.985597e-01
4.970037e-01
4.951501e-01
4.927351e-01
4.897934e-01
4.863712e-01
4.825137e-01
4.782596e-01
4.735675e-01
4.685952e-01
4.636071e-01
4.565835e-01
4.525433e-01
4.486921e-01
4.393897e-01
2.304000e-01
2.304000e-01
2.304000e-01
2.304000e-01
2.304000e-01
2.304000e-01
2.304000e-01
2.304000e-01
2.304000e-01
2.304000e-01
2.304000e-01
2.304000e-01
2.304000e-01
2.304000e-01
2.304000e-01
2.304000e-01
2.304000e-01
2.304000e-01
2.304000e-01
2.304000e-01
2.304000e-01
2.304000e-01
2.304000e-01
2.304000e-01
2.304000e-01
2.304000e-01
2.304000e-01
2.304000e-01
2.304000e-01
2.304000e-01
2.304000e-01
2.304000e-01
2.304000e-01
2.304000e-01
2.304000e-01
2.304000e-01
2.304000e-01
2.304000e-01
2.304000e-01
2.304000e-01
2.304000e-01
2.304000e-01
2.304000e-01
2.304000e-01
2.304000e-01
2.304000e-01
2.304000e-01
2.304000e-01
2.304000e-01
2.304000e-01
2.304000e-01
2.304000e-01
2.304000e-01
2.304000e-01
2.304000e-01
2.304000e-01
2.304000e-01
2.304000e-01
2.304000e-01
2.304000e-01
2.304000e-01
2.304000e-01
2.304000e-01
2.304000e-01
2.304000e-01
2.304000e-01
2.304000e-01
2.304000e-01
2.304000e-01
2.304000e-01
2.304000e-01
2.304000e-01
2.304000e-01
2.304000e-01
2.304000e-01
2.304000e-01
2.304000e-01
2.304000e-01
2.304000e-01
2.304000e-01
2.304000e-01
2.304000e-01
2.304000e-01
2.304000e-01
2.304000e-01
2.304000e-01
2.304000e-01
2.304000e-01
2.304000e-01
2.304000e-01
2.304000e-01
2.304000e-01
2.304000e-01
2.304000e-01
2.304000e-01
2.304000e-01
2.304000e-01
2.304000e-01
2.304000e-01
2.304000e-01
2.304000e-01
2.304000e-01
2.304000e-01
2.304000e-01
2.304000e-01
2.304000e-01
2.304000e-01
2.304000e-01
2.304000e-01
2.304000e-01
2.304000e-01
2.304000e-01
2.304000e-01
2.304000e-01
2.304000e-01
2.304000e-01
2.304000e-01
2.304000e-01
2.304000e-01
2.304000e-01
2.304000e-01
2.304000e-01
2.304000e-01
2.304000e-01
2.304000e-01
2.304000e-01
2.304000e-01
2.304000e-01
2.304000e-01
2.304000e-01
2.304000e-01
2.304000e-01
2.304000e-01
2.304000e-01
2.304000e-01
2.304000e-01
2.304000e-01
2.304000e-01
2.304000e-01
2.304000e-01
2.304000e-01
2.304000e-01
2.304000e-01
2.304000e-01
2.304000e-01
2.304000e-01
2.304000e-01
2.304000e-01
2.304000e-01
2.304000e-01
2.304000e-01
2.304000e-01
2.304000e-01
2.304000e-01
2.304000e-01
2.304000e-01
2.304000e-01
2.304000e-01
2.304000e-01
2.304000e-01
2.304000e-01
2.304000e-01
2.304000e-01
2.304000e-01
2.304000e-01
2.304000e-01
2.304000e-01
2.304000e-01
2.304000e-01
2.304000e-01
2.304000e-01
2.304000e-01
2.304000e-01
2.304000e-01
2.304000e-01
2.304000e-01
2.304000e-01
2.304000e-01
2.304000e-01
2.304000e-01
2.304000e-01
2.304000e-01
2.304000e-01
2.304000e-01
2.304000e-01
2.304000e-01
2.304000e-01
2.304000e-01
2.304000e-01
2.304000e-01
2.304000e-01
2.304000e-01
2.304000e-01
2.304000e-01
2.304000e-01
2.304000e-01
2.304000e-01
2.304000e-01
2.304000e-01
2.304000e-01
2.304000e-01
2.304000e-01
2.304000e-01
2.304000e-01
2.304000e-01
2.304000e-01
2.304000e-01
2.304000e-01
2.304000e-01
2.304000e-01
2.304000e-01
2.304000e-01
2.304000e-01
2.304000e-01
2.304000e-01
2.304000e-01
2.304000e-01
2.304000e-01
2.304000e-01
2.304000e-01
2.304000e-01
2.304000e-01
2.304000e-01
2.304000e-01
2.304000e-01
2.304000e-01
2.304000e-01
2.304000e-01
2.304000e-01
2.304000e-01
2.304000e-01
2.304000e-01
2.304000e-01
2.304000e-01
2.304000e-01
2.304000e-01
2.304000e-01
2.304000e-01
2.304000e-01
2.304000e-01
2.304000e-01
2.304000e-01
2.304000e-01
2.304000e-01
2.304000e-01
2.304000e-01
2.304000e-01
2.304000e-01
2.304000e-01
2.304000e-01
2.304000e-01
2.304000e-01
2.304000e-01
2.304000e-01
2.304000e-01
2.304000e-01
2.304000e-01
2.304000e-01
2.304000e-01
2.304000e-01
2.304000e-01
2.304000e-01
2.304000e-01
2.304000e-01
2.304000e-01
2.304000e-01
2.304000e-01
2.304000e-01
2.304000e-01
2.304000e-01
2.304000e-01
2.304000e-01
2.304000e-01
2.304000e-01
2.304000e-01
2.304000e-01
2.304000e-01
2.304000e-01
2.304000e-01
2.304000e-01
2.304000e-01
2.304000e-01
2.304000e-01
2.304000e-01
2.304000e-01
2.304000e-01
2.304000e-01
2.304000e-01
2.304000e-01
2.304000e-01
2.304000e-01
2.304000e-01
2.304000e-01
2.304000e-01
2.304000e-01
2.304000e-01
2.304000e-01
2.304000e-01
2.304000e-01
2.304000e-01
2.304000e-01
2.304000e-01
2.304000e-01
2.304000e-01
2.304000e-01
2.304000e-01
2.304000e-01
2.304000e-01
2.304000e-01
2.304000e-01
2.304000e-01
2.304000e-01
2.304000e-01
2.304000e-01
2.304000e-01
2.304000e-01
2.304000e-01
2.304000e-01
2.304000e-01
2.304000e-01
2.304000e-01
2.304000e-01
2.304000e-01
2.304000e-01
2.304000e-01
2.304000e-01
2.304000e-01
2.304000e-01
2.304000e-01
2.304000e-01
2.304000e-01
2.304000e-01
2.304000e-01
2.304000e-01
2.304000e-01
2.304000e-01
2.304000e-01
2.304000e-01
2.304000e-01
2.304000e-01
2.304000e-01
2.304000e-01
2.304000e-01
2.304000e-01
2.304000e-01
2.304000e-01
2.304000e-01
2.304000e-01
2.304000e-01
2.304000e-01
2.304000e-01
2.304000e-01
2.304000e-01
2.304000e-01
2.304000e-01
2.304000e-01
2.304000e-01
2.304000e-01
2.304000e-01
2.304000e-01
2.304000e-01
2.304000e-01
2.304000e-01
2.304000e-01
2.304000e-01
2.304000e-01
2.304000e-01
2.304000e-01
2.304000e-01
2.304000e-01
3.804000e-01
3.804000e-01
3.804000e-01
3.804000e-01
3.804000e-01
3.804000e-01
3.804000e-01
3.804000e-01
3.804000e-01
3.804000e-01
3.804000e-01
3.804000e-01
3.804000e-01
3.804000e-01
3.804000e-01
3.804000e-01
3.804000e-01
3.804000e-01
3.804000e-01
3.804000e-01
3.804000e-01
3.804000e-01
3.804000e-01
3.804000e-01
3.804000e-01
3.804000e-01
3.804000e-01
3.804000e-01
3.804000e-01
3.804000e-01
3.804000e-01
3.804000e-01
3.804000e-01
3.417713e-01
3.358998e-01
3.511261e-01
3.405066e-01
3.445709e-01
3.328719e-01
3.319156e-01
3.270921e-01
3.230322e-01
3.385603e-01
3.311507e-01
3.253011e-01
3.349053e-01
3.233980e-01
3.313871e-01
2.541330e-01
3.790495e-01
3.769066e-01
3.722991e-01
3.742263e-01
3.727098e-01
3.686381e-01
3.727581e-01
3.700267e-01
3.672428e-01
3.673757e-01
3.639688e-01
3.603610e-01
3.638101e-01
3.601977e-01
3.565581e-01
3.522998e-01
3.769704e-01
3.596770e-01
3.556778e-01
3.515718e-01
3.490783e-01
3.431336e-01
3.384139e-01
3.429349e-01
3.324867e-01
3.558181e-01
3.473761e-01
3.794112e-01
3.373267e-01
3.248582e-01
3.322557e-01
3.265765e-01
3.209484e-01
3.164493e-01
3.139143e-01
3.187027e-01
3.130203e-01
3.082828e-01
3.046057e-01
3.104264e-01
3.034188e-01
2.987328e-01
2.945734e-01
2.915313e-01
2.878151e-01
2.837805e-01
2.762206e-01
2.721589e-01
2.583723e-01
3.023637e-01
2.861363e-01
2.725225e-01
2.617432e-01
2.487965e-01
3.723962e-01
3.688246e-01
3.798759e-01
3.780233e-01
3.791140e-01
3.750764e-01
3.766005e-01
3.731899e-01
3.691717e-01
3.733681e-01
3.762724e-01
3.789090e-01
2.794207e-01
2.674790e-01
2.503494e-01
2.785868e-01
2.620921e-01
2.438390e-01
3.722101e-01
3.686646e-01
3.798077e-01
3.779140e-01
3.789905e-01
3.750014e-01
3.764413e-01
3.730088e-01
3.689868e-01
2.783329e-01
2.668081e-01
2.513348e-01
2.796930e-01
2.626909e-01
2.439139e-01
3.797618e-01
3.777826e-01
3.788205e-01
3.748113e-01
3.761500e-01
3.727462e-01
3.689549e-01
2.803190e-01
2.679994e-01
2.512571e-01
3.795917e-01
3.770513e-01
3.744436e-01
3.724854e-01
3.700652e-01
3.690460e-01
3.627440e-01
2.798897e-01
2.644371e-01
2.449255e-01
3.063329e-01
2.920472e-01
2.767450e-01
2.582358e-01
2.437011e-01
3.726561e-01
3.692446e-01
3.798362e-01
3.779789e-01
3.790024e-01
3.750694e-01
3.764847e-01
3.729779e-01
3.689901e-01
2.817616e-01
2.694465e-01
2.522416e-01
2.794029e-01
2.633640e-01
3.595540e-01
3.668577e-01
3.713772e-01
3.747979e-01
2.442919e-01
3.797776e-01
3.779367e-01
3.752685e-01
2.814810e-01
2.690092e-01
2.511706e-01
3.706222e-01
3.666851e-01
3.795719e-01
3.773595e-01
3.785736e-01
3.741416e-01
3.754804e-01
3.698423e-01
3.712790e-01
3.643178e-01
3.666188e-01
3.013682e-01
2.880275e-01
2.748430e-01
2.618074e-01
2.471663e-01
2.740763e-01
2.588226e-01
2.424842e-01
3.795388e-01
3.771095e-01
3.782085e-01
3.736225e-01
3.751721e-01
3.715068e-01
3.673940e-01
3.486307e-01
2.763152e-01
2.651157e-01
2.491536e-01
3.799100e-01
3.774474e-01
3.740252e-01
3.715142e-01
3.689761e-01
3.677506e-01
3.608254e-01
2.771766e-01
2.617627e-01
2.437122e-01
3.030704e-01
2.891645e-01
2.743435e-01
2.565335e-01
2.427593e-01
3.711342e-01
3.673366e-01
3.796347e-01
3.774701e-01
3.786823e-01
3.742696e-01
3.757388e-01
3.717380e-01
3.673286e-01
2.789425e-01
2.669786e-01
2.505247e-01
2.756432e-01
2.605627e-01
2.430163e-01
3.712076e-01
3.674713e-01
3.796314e-01
3.402466e-01
3.773739e-01
3.786348e-01
3.740440e-01
3.757207e-01
3.719513e-01
3.676553e-01
2.763052e-01
2.643842e-01
2.487838e-01
2.740971e-01
2.591979e-01
2.423341e-01
3.795662e-01
3.771672e-01
3.782437e-01
3.737909e-01
3.748648e-01
3.703963e-01
3.658657e-01
2.749810e-01
2.636573e-01
2.477647e-01
3.793249e-01
3.774220e-01
3.748934e-01
3.692976e-01
3.701746e-01
3.651533e-01
3.621074e-01
2.741570e-01
2.589481e-01
2.421023e-01
3.057102e-01
2.924108e-01
2.723871e-01
2.589753e-01
2.465119e-01
3.794067e-01
3.764748e-01
3.770706e-01
3.575756e-01
3.644549e-01
3.694700e-01
3.730872e-01
3.753681e-01
3.782642e-01
3.723692e-01
3.733918e-01
3.688210e-01
3.641056e-01
2.739600e-01
2.628386e-01
2.478399e-01
3.793188e-01
3.753324e-01
3.691444e-01
3.647807e-01
3.591581e-01
2.744496e-01
2.588852e-01
2.421005e-01
2.465987e-01
3.733563e-01
3.710868e-01
3.672217e-01
3.668123e-01
3.603110e-01
3.587963e-01
3.607236e-01
3.536633e-01
3.456100e-01
3.484678e-01
3.518754e-01
3.538689e-01
3.375225e-01
3.417397e-01
3.455882e-01
3.440676e-01
3.173607e-01
3.081158e-01
3.011044e-01
2.940611e-01
2.858230e-01
2.759434e-01
2.649848e-01
2.566599e-01
2.467246e-01
2.631847e-01
2.686978e-01
2.785616e-01
2.791893e-01
2.952817e-01
2.914451e-01
2.885385e-01
3.052381e-01
3.009941e-01
2.974294e-01
3.051794e-01
3.184033e-01
3.133169e-01
3.089773e-01
3.300659e-01
3.252239e-01
3.200614e-01
3.160082e-01
3.125108e-01
3.374184e-01
3.201979e-01
3.279446e-01
3.313772e-01
3.772087e-01
2.451987e-01
3.791497e-01
3.789930e-01
3.776776e-01
3.754055e-01
3.798166e-01
3.709493e-01
3.689415e-01
3.661458e-01
3.414366e-01
3.476065e-01
3.556413e-01
3.624908e-01
3.678552e-01
3.718572e-01
3.749180e-01
3.778019e-01
3.798820e-01
3.786761e-01
3.765457e-01
3.733060e-01
3.560003e-01
3.796609e-01
3.780919e-01
3.757966e-01
3.724099e-01
3.684520e-01
3.646612e-01
3.607777e-01
3.800601e-01
3.792288e-01
3.770269e-01
3.753227e-01
3.711229e-01
3.667889e-01
3.628314e-01
3.596145e-01
3.532120e-01
3.472838e-01
2.497866e-01
2.409795e-01
2.790093e-01
2.698806e-01
2.585245e-01
2.473693e-01
2.813248e-01
2.662745e-01
3.162267e-01
3.103646e-01
3.007492e-01
2.870823e-01
2.752823e-01
2.639431e-01
2.527868e-01
2.431218e-01
3.008627e-01
2.900989e-01
3.706341e-01
3.650265e-01
3.587404e-01
3.506459e-01
3.408808e-01
3.292949e-01
3.166121e-01
3.798055e-01
3.784067e-01
3.752439e-01
3.703731e-01
3.641257e-01
3.557998e-01
3.468527e-01
3.365845e-01
3.253974e-01
3.158517e-01
3.045471e-01
2.933601e-01
2.810603e-01
2.642749e-01
2.494289e-01
3.285415e-01
3.210778e-01
3.123404e-01
3.019503e-01
2.908125e-01
2.797269e-01
2.685034e-01
2.573008e-01
2.466061e-01
2.421958e-01
3.607394e-01
3.542699e-01
3.453910e-01
3.344672e-01
2.667134e-01
2.613172e-01
2.474193e-01
3.195085e-01
3.058664e-01
2.911864e-01
2.764256e-01
2.610939e-01
2.479492e-01
3.705738e-01
3.649875e-01
3.584887e-01
3.499082e-01
3.400616e-01
3.290068e-01
3.168615e-01
3.030881e-01
2.893220e-01
2.757095e-01
3.796959e-01
3.782981e-01
3.752590e-01
3.709989e-01
3.645672e-01
3.546502e-01
3.451654e-01
3.345119e-01
3.229206e-01
3.119187e-01
3.796948e-01
3.774918e-01
3.743448e-01