VARIABLES = "X" "Y" "Z" "FREF"
ZONE T="instant 069"
Nodes=3151, Elements=6298
ZONETYPE=FETriangle
DATAPACKING=BLOCK
VARLOCATION = ([1-3]=NODAL, [4]=CELLCENTERED)
5.000000e-01
2.211722e-01
2.424089e-01
2.597187e-01
2.746258e-01
2.917464e-01
3.093870e-01
3.273641e-01
3.461500e-01
3.653637e-01
3.836481e-01
3.998796e-01
4.147116e-01
4.284129e-01
4.408864e-01
4.518178e-01
4.610227e-01
4.680105e-01
4.743819e-01
4.810128e-01
4.868042e-01
4.914164e-01
4.948268e-01
4.973328e-01
4.989581e-01
4.998051e-01
2.044000e-01
2.044000e-01
2.044000e-01
2.044000e-01
2.044000e-01
2.044000e-01
2.044000e-01
2.044000e-01
2.044000e-01
2.044000e-01
2.044000e-01
2.044000e-01
3.537694e-01
3.523897e-01
3.489722e-01
3.434245e-01
3.365845e-01
3.317710e-01
3.256095e-01
3.175849e-01
3.098178e-01
3.023222e-01
2.940919e-01
2.843688e-01
2.763682e-01
2.687038e-01
2.613068e-01
2.518324e-01
2.423431e-01
2.353483e-01
2.263601e-01
2.158151e-01
3.544000e-01
4.870823e-01
4.727818e-01
4.596416e-01
4.464653e-01
4.322098e-01
4.174378e-01
4.035378e-01
3.902069e-01
3.768574e-01
3.649079e-01
3.891756e-01
2.488032e-01
2.373696e-01
4.009650e-01
3.817496e-01
2.542112e-01
2.644592e-01
2.451295e-01
2.668527e-01
2.247760e-01
2.678948e-01
2.541453e-01
2.725990e-01
2.841115e-01
4.881493e-01
2.978289e-01
3.130766e-01
2.907751e-01
3.009434e-01
3.435611e-01
3.544210e-01
3.875827e-01
3.689855e-01
3.700826e-01
3.966206e-01
4.059150e-01
3.872903e-01
4.827797e-01
4.746079e-01
3.978519e-01
4.128822e-01
4.063459e-01
4.225868e-01
4.168074e-01
4.266138e-01
3.640643e-01
3.849869e-01
3.744888e-01
3.576968e-01
2.458220e-01
2.313083e-01
2.191053e-01
2.228580e-01
2.225535e-01
2.400822e-01
2.569941e-01
2.233843e-01
2.407017e-01
2.578068e-01
2.749377e-01
2.146332e-01
2.263578e-01
2.419963e-01
2.591024e-01
4.854761e-01
2.760937e-01
2.925942e-01
2.939312e-01
3.102757e-01
2.967178e-01
3.106257e-01
3.274046e-01
2.215777e-01
2.408830e-01
2.596073e-01
2.792341e-01
2.715620e-01
2.717166e-01
2.813458e-01
2.903269e-01
3.093420e-01
3.238739e-01
3.335887e-01
3.454188e-01
2.219469e-01
2.392982e-01
2.578683e-01
2.789397e-01
2.943471e-01
3.077711e-01
3.234635e-01
3.102144e-01
3.213623e-01
3.260607e-01
3.385461e-01
3.516625e-01
3.668013e-01
2.864130e-01
2.997789e-01
3.135329e-01
3.384561e-01
4.809425e-01
4.723168e-01
4.664451e-01
4.589882e-01
3.530692e-01
3.677151e-01
3.833481e-01
2.921143e-01
3.263290e-01
3.398884e-01
3.541454e-01
3.678347e-01
3.825769e-01
3.982520e-01
3.059096e-01
3.199059e-01
3.343994e-01
3.417875e-01
3.559799e-01
3.714804e-01
4.760950e-01
4.664486e-01
4.582169e-01
4.511048e-01
4.434311e-01
3.812825e-01
3.957540e-01
4.116432e-01
3.533296e-01
3.700991e-01
3.903426e-01
4.071277e-01
4.238524e-01
3.105738e-01
3.244004e-01
3.387176e-01
3.540779e-01
3.865195e-01
4.029138e-01
4.191262e-01
4.353821e-01
3.693445e-01
3.847071e-01
3.997077e-01
4.152241e-01
4.303276e-01
4.459064e-01
4.352066e-01
4.453865e-01
3.266640e-01
3.405294e-01
3.548749e-01
3.698983e-01
3.847279e-01
3.989530e-01
4.115236e-01
4.271683e-01
4.404813e-01
4.556270e-01
4.087314e-01
4.150796e-01
4.701731e-01
4.602664e-01
4.517237e-01
4.434528e-01
4.364626e-01
4.294668e-01
4.208628e-01
4.210650e-01
4.286992e-01
4.366715e-01
4.440053e-01
4.530129e-01
4.632946e-01
2.044000e-01
4.997252e-01
4.980534e-01
4.952573e-01
4.915423e-01
4.855318e-01
4.785394e-01
4.695018e-01
4.581759e-01
4.442728e-01
4.298881e-01
4.167113e-01
4.024674e-01
3.875987e-01
3.717412e-01
3.578173e-01
3.460726e-01
3.342088e-01
3.207895e-01
3.063455e-01
2.916185e-01
2.767705e-01
2.616648e-01
2.465268e-01
2.313701e-01
2.169378e-01
5.000000e-01
3.647663e-01
3.768667e-01
3.898556e-01
4.041214e-01
4.177820e-01
4.311537e-01
4.454863e-01
4.608695e-01
4.753433e-01
4.886744e-01
3.544000e-01
2.144319e-01
2.243215e-01
2.364463e-01
2.511133e-01
2.622436e-01
2.727132e-01
2.828925e-01
2.926432e-01
3.008379e-01
3.068439e-01
3.146418e-01
3.217148e-01
3.272575e-01
3.316617e-01
3.358104e-01
3.414888e-01
3.456785e-01
3.480573e-01
3.502690e-01
3.524007e-01
3.539421e-01
2.044000e-01
2.044000e-01
2.044000e-01
2.044000e-01
2.044000e-01
2.044000e-01
2.044000e-01
2.044000e-01
2.044000e-01
2.044000e-01
2.044000e-01
3.905623e-01
4.151838e-01
2.390500e-01
2.688062e-01
2.591770e-01
3.630634e-01
3.682360e-01
3.804831e-01
3.794100e-01
3.954590e-01
3.958413e-01
4.026232e-01
3.863920e-01
4.333243e-01
2.188664e-01
4.222886e-01
4.054617e-01
4.245573e-01
3.940390e-01
4.161875e-01
4.058271e-01
4.299419e-01
4.195852e-01
2.217894e-01
2.712850e-01
2.416285e-01
2.345161e-01
2.229106e-01
2.648207e-01
2.891336e-01
2.541560e-01
2.880483e-01
2.727512e-01
2.963035e-01
2.835125e-01
3.060699e-01
3.170116e-01
2.291583e-01
3.656322e-01
2.204010e-01
2.312107e-01
2.487931e-01
3.578258e-01
3.702769e-01
3.798605e-01
4.851921e-01
4.702182e-01
4.784996e-01
4.820794e-01
4.486777e-01
4.559436e-01
4.620555e-01
4.674965e-01
2.492342e-01
2.374661e-01
2.209387e-01
4.752773e-01
4.463216e-01
4.519764e-01
4.578429e-01
4.700438e-01
4.372818e-01
4.402704e-01
4.564064e-01
4.628956e-01
3.571218e-01
3.632222e-01
3.721790e-01
4.227009e-01
4.345440e-01
4.495149e-01
4.103351e-01
4.250998e-01
4.303041e-01
4.370713e-01
4.411416e-01
4.436405e-01
4.473234e-01
3.447793e-01
3.787369e-01
3.918864e-01
4.081780e-01
4.169957e-01
4.275186e-01
4.369250e-01
3.489490e-01
3.534190e-01
3.619574e-01
3.981174e-01
4.087402e-01
2.643510e-01
2.530809e-01
4.167519e-01
4.241559e-01
3.316960e-01
3.680023e-01
3.769336e-01
3.911566e-01
3.983927e-01
4.047580e-01
4.109936e-01
3.365780e-01
3.398993e-01
3.475577e-01
3.787254e-01
3.866542e-01
3.919581e-01
3.974583e-01
3.510017e-01
2.784106e-01
2.654834e-01
2.512024e-01
2.359364e-01
2.194084e-01
3.566974e-01
3.692387e-01
3.740458e-01
3.783003e-01
3.832519e-01
3.147137e-01
3.199383e-01
3.227635e-01
3.305186e-01
3.551585e-01
3.598000e-01
3.642890e-01
3.687636e-01
3.323003e-01
3.365454e-01
3.399168e-01
3.461109e-01
3.509338e-01
3.539112e-01
2.218279e-01
2.393074e-01
2.603968e-01
2.763296e-01
2.910697e-01
3.064001e-01
3.213027e-01
2.937448e-01
2.971352e-01
3.090286e-01
3.127132e-01
3.133254e-01
3.199616e-01
3.264158e-01
3.352662e-01
3.358336e-01
3.374449e-01
2.928043e-01
2.796646e-01
2.665462e-01
2.528694e-01
2.373655e-01
2.210741e-01
2.958483e-01
3.081100e-01
3.214706e-01
2.707537e-01
2.819528e-01
2.941296e-01
3.072795e-01
5.000000e-01
5.000000e-01
5.000000e-01
5.000000e-01
5.000000e-01
5.000000e-01
5.000000e-01
5.000000e-01
5.000000e-01
5.000000e-01
5.000000e-01
5.000000e-01
5.000000e-01
5.000000e-01
5.000000e-01
5.000000e-01
5.000000e-01
5.000000e-01
5.000000e-01
5.000000e-01
5.000000e-01
5.000000e-01
5.000000e-01
5.000000e-01
5.000000e-01
5.000000e-01
5.000000e-01
5.000000e-01
5.000000e-01
5.000000e-01
5.000000e-01
5.000000e-01
5.000000e-01
2.044000e-01
2.044000e-01
2.044000e-01
2.044000e-01
2.044000e-01
2.044000e-01
2.044000e-01
2.044000e-01
2.044000e-01
2.044000e-01
2.044000e-01
2.044000e-01
2.044000e-01
2.044000e-01
2.044000e-01
2.044000e-01
2.044000e-01
2.044000e-01
2.044000e-01
2.044000e-01
2.044000e-01
2.044000e-01
2.044000e-01
2.044000e-01
2.044000e-01
2.044000e-01
2.044000e-01
2.044000e-01
2.044000e-01
2.044000e-01
2.044000e-01
2.044000e-01
2.044000e-01
3.797176e-01
3.890085e-01
3.852471e-01
3.942486e-01
4.037644e-01
4.261127e-01
4.104486e-01
4.173184e-01
3.480204e-01
3.563879e-01
3.632352e-01
3.643649e-01
3.710190e-01
3.762554e-01
3.811428e-01
4.023487e-01
3.872952e-01
3.795441e-01
3.939929e-01
4.083626e-01
3.722213e-01
3.721489e-01
2.285253e-01
2.189562e-01
3.848662e-01
3.992630e-01
4.137223e-01
3.983671e-01
4.076697e-01
4.172488e-01
4.113988e-01
4.200931e-01
4.236776e-01
4.416889e-01
4.136222e-01
4.243382e-01
4.089530e-01
4.296565e-01
4.164715e-01
4.025343e-01
4.344392e-01
4.219848e-01
4.100524e-01
3.978511e-01
4.339507e-01
4.434110e-01
4.401391e-01
4.309183e-01
4.230699e-01
2.474366e-01
2.356831e-01
2.222641e-01
3.936930e-01
4.026119e-01
4.101665e-01
3.872075e-01
3.959309e-01
3.807420e-01
2.185134e-01
2.292393e-01
2.316254e-01
2.422399e-01
2.451615e-01
2.535717e-01
2.561988e-01
2.591911e-01
2.601108e-01
2.665175e-01
2.702553e-01
2.735505e-01
2.747185e-01
2.804283e-01
2.845530e-01
2.881184e-01
2.834691e-01
2.896294e-01
2.948478e-01
2.990620e-01
3.027994e-01
2.935079e-01
2.990728e-01
3.046371e-01
3.095337e-01
3.136836e-01
3.174863e-01
3.030179e-01
2.648997e-01
2.535025e-01
2.413233e-01
2.286453e-01
2.197425e-01
3.088648e-01
3.144318e-01
3.196738e-01
3.243441e-01
3.282824e-01
3.320459e-01
3.179518e-01
3.242047e-01
3.296578e-01
3.346863e-01
3.392211e-01
3.426620e-01
3.463152e-01
3.262281e-01
3.333287e-01
3.396820e-01
3.446956e-01
3.496197e-01
3.542824e-01
3.564204e-01
3.601488e-01
3.343523e-01
3.416634e-01
3.488416e-01
3.554481e-01
3.591963e-01
3.644687e-01
3.703049e-01
3.684606e-01
3.739950e-01
3.860025e-01
4.209331e-01
3.679469e-01
3.809576e-01
3.951432e-01
2.820035e-01
2.712346e-01
2.597557e-01
2.480879e-01
2.373493e-01
2.269337e-01
4.093652e-01
3.588043e-01
3.730653e-01
3.880155e-01
4.026781e-01
4.156843e-01
4.276577e-01
3.876041e-01
3.957998e-01
4.010681e-01
4.062345e-01
4.107589e-01
4.165492e-01
4.225023e-01
4.283075e-01
4.287004e-01
4.317012e-01
4.350771e-01
4.370971e-01
4.395170e-01
4.425019e-01
4.167318e-01
4.239713e-01
4.301854e-01
4.361622e-01
4.419372e-01
4.466258e-01
4.496218e-01
4.279278e-01
4.310095e-01
4.366648e-01
4.436033e-01
4.488758e-01
4.528198e-01
4.562381e-01
4.397136e-01
4.507965e-01
4.492489e-01
4.573724e-01
4.593031e-01
4.624222e-01
4.658411e-01
4.683754e-01
4.496965e-01
4.619207e-01
4.691918e-01
4.737066e-01
4.592547e-01
4.697731e-01
4.744535e-01
4.783413e-01
4.753162e-01
4.831184e-01
2.994421e-01
2.888396e-01
2.777331e-01
2.664047e-01
2.552149e-01
2.438980e-01
2.307441e-01
2.206597e-01
4.806512e-01
4.876198e-01
4.828580e-01
4.885288e-01
4.944729e-01
4.983649e-01
4.963436e-01
4.937375e-01
4.933575e-01
4.906613e-01
4.892809e-01
4.898661e-01
4.842142e-01
4.849256e-01
4.858569e-01
4.870012e-01
4.782209e-01
4.789156e-01
4.799757e-01
4.812900e-01
4.827808e-01
4.718048e-01
4.729916e-01
4.744860e-01
4.762152e-01
4.780710e-01
4.707385e-01
4.729569e-01
4.634992e-01
4.648832e-01
4.665530e-01
4.685427e-01
4.541131e-01
4.556525e-01
4.574519e-01
4.596986e-01
4.623155e-01
4.650025e-01
4.674604e-01
4.439543e-01
4.453906e-01
4.471610e-01
4.495808e-01
4.526939e-01
4.560895e-01
4.590631e-01
4.612877e-01
4.225552e-01
4.236315e-01
4.342874e-01
4.357427e-01
4.379973e-01
4.417950e-01
4.458318e-01
4.505291e-01
4.515363e-01
4.548762e-01
4.249966e-01
4.351672e-01
4.181136e-01
2.520473e-01
2.754798e-01
2.624713e-01
2.805494e-01
2.742300e-01
2.974708e-01
2.931765e-01
2.866464e-01
3.192583e-01
3.115305e-01
3.171110e-01
3.064065e-01
2.954299e-01
2.842860e-01
2.730749e-01
2.617114e-01
2.498875e-01
2.385393e-01
2.274337e-01
3.052943e-01
2.988355e-01
3.384580e-01
3.306352e-01
3.235889e-01
3.170736e-01
3.107048e-01
3.491683e-01
3.417276e-01
3.349414e-01
3.285173e-01
3.222515e-01
3.669880e-01
3.593613e-01
3.523783e-01
3.458954e-01
3.396654e-01
3.334871e-01
3.837307e-01
3.763140e-01
3.692088e-01
3.627140e-01
3.565902e-01
3.505592e-01
3.443937e-01
3.989047e-01
3.926253e-01
3.852753e-01
3.788262e-01
3.728588e-01
3.671379e-01
3.611736e-01
3.548824e-01
4.114163e-01
4.092470e-01
4.003490e-01
3.941597e-01
3.882447e-01
3.830474e-01
3.775622e-01
3.712795e-01
3.648677e-01
4.498079e-01
4.411564e-01
4.302994e-01
4.180272e-01
4.044058e-01
3.897338e-01
3.743461e-01
4.386771e-01
4.268453e-01
4.135356e-01
3.982806e-01
3.832559e-01
2.191780e-01
2.177956e-01
2.205508e-01
2.347181e-01
2.303976e-01
2.388130e-01
2.503523e-01
2.187741e-01
2.319170e-01
2.439284e-01
2.544411e-01
2.656778e-01
2.197429e-01
2.335257e-01
2.463532e-01
2.583028e-01
2.695541e-01
2.808069e-01
3.349485e-01
3.238895e-01
3.128825e-01
3.018705e-01
2.907762e-01
2.795255e-01
2.680297e-01
2.564380e-01
2.445621e-01
2.312114e-01
2.199779e-01
2.160773e-01
2.235589e-01
2.357894e-01
2.485649e-01
2.610128e-01
2.729637e-01
2.845229e-01
2.958410e-01
2.152202e-01
2.187520e-01
2.299508e-01
2.397394e-01
2.513237e-01
2.635416e-01
2.757333e-01
2.876849e-01
2.994139e-01
3.109016e-01
2.226942e-01
2.336960e-01
2.444356e-01
2.548978e-01
2.663635e-01
2.783460e-01
2.903937e-01
3.023300e-01
3.141719e-01
3.262247e-01
3.393315e-01
2.167178e-01
2.277017e-01
2.376996e-01
2.484939e-01
2.590021e-01
2.694770e-01
2.810395e-01
2.929471e-01
3.049083e-01
3.167812e-01
3.285283e-01
3.403466e-01
3.509707e-01
2.177002e-01
2.299710e-01
2.406071e-01
2.521844e-01
2.632696e-01
2.734824e-01
2.834483e-01
2.955056e-01
3.073004e-01
3.192384e-01
3.310110e-01
3.425728e-01
3.545193e-01
3.636600e-01
2.117936e-01
2.195781e-01
2.310695e-01
2.439862e-01
2.531766e-01
2.672245e-01
2.782044e-01
2.879619e-01
2.963240e-01
3.102981e-01
3.212807e-01
3.334448e-01
3.450093e-01
3.560559e-01
3.698317e-01
3.763026e-01
3.528088e-01
3.411496e-01
3.299948e-01
3.191312e-01
3.082370e-01
2.971727e-01
2.858715e-01
2.743274e-01
2.624406e-01
2.499405e-01
2.372572e-01
2.229074e-01
4.992190e-01
4.997273e-01
4.973594e-01
4.987422e-01
4.996559e-01
4.945049e-01
4.967788e-01
4.984745e-01
4.995903e-01
4.872627e-01
4.908259e-01
4.938369e-01
4.963288e-01
4.982583e-01
4.995323e-01
4.733040e-01
4.812665e-01
4.860438e-01
4.898895e-01
4.931615e-01
4.958985e-01
4.980411e-01
4.994700e-01
4.758758e-01
4.805650e-01
4.849604e-01
4.889429e-01
4.924471e-01
4.954196e-01
4.977757e-01
4.993818e-01
4.643260e-01
4.691231e-01
4.740500e-01
4.790247e-01
4.836606e-01
4.878772e-01
4.916153e-01
4.948082e-01
4.973701e-01
4.991906e-01
4.996611e-01
4.540508e-01
4.606469e-01
4.664794e-01
4.720469e-01
4.773162e-01
4.821978e-01
4.866382e-01
4.905791e-01
4.939384e-01
4.965917e-01
4.983671e-01
4.995488e-01
4.349455e-01
4.436296e-01
4.511742e-01
4.578668e-01
4.640855e-01
4.699539e-01
4.754516e-01
4.805366e-01
4.851645e-01
4.892790e-01
4.928108e-01
4.956889e-01
4.979285e-01
4.994407e-01
4.111095e-01
4.232559e-01
4.328037e-01
4.411180e-01
4.484269e-01
4.552212e-01
3.703003e-01
3.579631e-01
3.465376e-01
3.359573e-01
3.253812e-01
3.145883e-01
3.035154e-01
2.921402e-01
2.804171e-01
2.682610e-01
2.557054e-01
2.425946e-01
2.295300e-01
4.616491e-01
4.677094e-01
4.733746e-01
4.786185e-01
4.834007e-01
4.876912e-01
4.914859e-01
4.947719e-01
4.975069e-01
4.993212e-01
2.184025e-01
2.326654e-01
2.471003e-01
2.617358e-01
2.765421e-01
2.914608e-01
3.064167e-01
3.213227e-01
3.360883e-01
3.506480e-01
3.650233e-01
3.792037e-01
3.930927e-01
4.067977e-01
4.199215e-01
4.322420e-01
4.436043e-01
4.545450e-01
4.654314e-01
4.729963e-01
4.801266e-01
4.877855e-01
4.931613e-01
4.972557e-01
3.999897e-01
4.130125e-01
4.219774e-01
4.308394e-01
4.383453e-01
4.455460e-01
4.524803e-01
4.590620e-01
4.652358e-01
4.710177e-01
4.763801e-01
4.812479e-01
4.857040e-01
4.898357e-01
4.934647e-01
4.972435e-01
4.989629e-01
2.191331e-01
2.340181e-01
2.490513e-01
2.642195e-01
2.794916e-01
2.948159e-01
3.101263e-01
3.253509e-01
3.404237e-01
3.552954e-01
3.699200e-01
3.842288e-01
3.981451e-01
4.115713e-01
4.243625e-01
4.364341e-01
4.477323e-01
4.582529e-01
4.676451e-01
4.759429e-01
4.833066e-01
4.897399e-01
4.948130e-01
4.984211e-01
2.198670e-01
2.354078e-01
2.510399e-01
2.667624e-01
2.825398e-01
2.983149e-01
3.140202e-01
3.295866e-01
3.449476e-01
3.600386e-01
3.747893e-01
3.891206e-01
4.029471e-01
4.161792e-01
4.287323e-01
4.405332e-01
4.515053e-01
4.615543e-01
4.705930e-01
4.786234e-01
4.855964e-01
4.914227e-01
4.959274e-01
4.989021e-01
2.206192e-01
2.368301e-01
2.531202e-01
2.694624e-01
2.857949e-01
3.020477e-01
3.181505e-01
3.340338e-01
3.496287e-01
3.869508e-01
3.741333e-01
3.620787e-01
3.521990e-01
3.421307e-01
3.317128e-01
3.209366e-01
3.098055e-01
2.983173e-01
2.864512e-01
2.741978e-01
2.615196e-01
2.483956e-01
2.341127e-01
2.228671e-01
3.648646e-01
3.796678e-01
3.939608e-01
4.076630e-01
4.206963e-01
4.329884e-01
4.444687e-01
4.550636e-01
4.647066e-01
4.733491e-01
4.809466e-01
4.874287e-01
4.927067e-01
4.966605e-01
4.991443e-01
2.213089e-01
2.383374e-01
2.554225e-01
2.724657e-01
2.893839e-01
3.061077e-01
3.225743e-01
3.387224e-01
3.544876e-01
3.698043e-01
3.846055e-01
3.988170e-01
4.123590e-01
4.251559e-01
4.371450e-01
4.482643e-01
4.584528e-01
4.676608e-01
4.758475e-01
4.829589e-01
4.889300e-01
4.936924e-01
4.971713e-01
4.992912e-01
2.222103e-01
2.402505e-01
2.582227e-01
2.759832e-01
2.934568e-01
3.105950e-01
3.273531e-01
3.436888e-01
3.595493e-01
3.748874e-01
3.896461e-01
4.037430e-01
4.170850e-01
4.295925e-01
4.412284e-01
4.519412e-01
4.616820e-01
4.704151e-01
4.781138e-01
4.847213e-01
4.901894e-01
4.944812e-01
4.975587e-01
4.993966e-01
2.237507e-01
2.429538e-01
2.618157e-01
2.802140e-01
2.981499e-01
3.156052e-01
3.325294e-01
3.489384e-01
3.648014e-01
3.801303e-01
3.948382e-01
4.087995e-01
4.219044e-01
4.340412e-01
4.452615e-01
4.555058e-01
4.647674e-01
4.729994e-01
4.801968e-01
4.862854e-01
4.912720e-01
4.951495e-01
4.978858e-01
4.994870e-01
2.259841e-01
2.467582e-01
2.664412e-01
2.852406e-01
3.035992e-01
3.212842e-01
3.380799e-01
3.543456e-01
3.701242e-01
3.856090e-01
4.002540e-01
4.140534e-01
4.269457e-01
4.385496e-01
4.492359e-01
4.588859e-01
4.677789e-01
4.754965e-01
4.821411e-01
4.876406e-01
4.922113e-01
4.957688e-01
4.025300e-01
3.898741e-01
3.757322e-01
3.677799e-01
3.584413e-01
3.484904e-01
3.380795e-01
3.272487e-01
3.160392e-01
3.044773e-01
2.925647e-01
2.802903e-01
2.676677e-01
2.548057e-01
2.425874e-01
2.294585e-01
4.982144e-01
4.995842e-01
2.306617e-01
2.533349e-01
2.715698e-01
2.909375e-01
3.102078e-01
3.281604e-01
3.437812e-01
3.578402e-01
3.758576e-01
3.916650e-01
4.058979e-01
4.194255e-01
4.328223e-01
4.435013e-01
4.524841e-01
4.618608e-01
4.711914e-01
4.782848e-01
4.836056e-01
4.886706e-01
4.930079e-01
4.964851e-01
4.986826e-01
4.996587e-01
4.996610e-01
4.995179e-01
4.985219e-01
4.996886e-01
4.991727e-01
4.980124e-01
4.964845e-01
4.995249e-01
4.985382e-01
4.972819e-01
4.955352e-01
4.935012e-01
4.992142e-01
4.979921e-01
4.963630e-01
4.944072e-01
4.920801e-01
4.895172e-01
4.995490e-01
4.983001e-01
4.972089e-01
4.953944e-01
4.931325e-01
4.905287e-01
4.876267e-01
4.844966e-01
4.785130e-01
4.993912e-01
4.980683e-01
4.962373e-01
4.942619e-01
4.917667e-01
4.888578e-01
4.856352e-01
4.821765e-01
4.717315e-01
4.996796e-01
4.990763e-01
4.976187e-01
4.955614e-01
4.930829e-01
4.903077e-01
4.871077e-01
4.835420e-01
4.797223e-01
4.757606e-01
4.641516e-01
4.994952e-01
4.984497e-01
4.969605e-01
4.947596e-01
4.920070e-01
4.888392e-01
4.853140e-01
4.814083e-01
4.771719e-01
4.727822e-01
4.684028e-01
4.991773e-01
4.979112e-01
4.961243e-01
4.937944e-01
4.908522e-01
4.873994e-01
4.835252e-01
4.792739e-01
4.746661e-01
4.697018e-01
4.647884e-01
4.600884e-01
4.553543e-01
4.448472e-01
4.995996e-01
4.984106e-01
4.972281e-01
4.952837e-01
4.927242e-01
4.895908e-01
4.859079e-01
4.817494e-01
4.771604e-01
4.721960e-01
4.669124e-01
4.609779e-01
4.557162e-01
4.508960e-01
4.056365e-01
4.170443e-01
4.994605e-01
4.983492e-01
4.965669e-01
4.944287e-01
4.916543e-01
4.882770e-01
4.843510e-01
4.799365e-01
4.750830e-01
4.697579e-01
4.640916e-01
4.583415e-01
4.503549e-01
4.457046e-01
4.413778e-01
4.308408e-01
2.044000e-01
2.044000e-01
2.044000e-01
2.044000e-01
2.044000e-01
2.044000e-01
2.044000e-01
2.044000e-01
2.044000e-01
2.044000e-01
2.044000e-01
2.044000e-01
2.044000e-01
2.044000e-01
2.044000e-01
2.044000e-01
2.044000e-01
2.044000e-01
2.044000e-01
2.044000e-01
2.044000e-01
2.044000e-01
2.044000e-01
2.044000e-01
2.044000e-01
2.044000e-01
2.044000e-01
2.044000e-01
2.044000e-01
2.044000e-01
2.044000e-01
2.044000e-01
2.044000e-01
2.044000e-01
2.044000e-01
2.044000e-01
2.044000e-01
2.044000e-01
2.044000e-01
2.044000e-01
2.044000e-01
2.044000e-01
2.044000e-01
2.044000e-01
2.044000e-01
2.044000e-01
2.044000e-01
2.044000e-01
2.044000e-01
2.044000e-01
2.044000e-01
2.044000e-01
2.044000e-01
2.044000e-01
2.044000e-01
2.044000e-01
2.044000e-01
2.044000e-01
2.044000e-01
2.044000e-01
2.044000e-01
2.044000e-01
2.044000e-01
2.044000e-01
2.044000e-01
2.044000e-01
2.044000e-01
2.044000e-01
2.044000e-01
2.044000e-01
2.044000e-01
2.044000e-01
2.044000e-01
2.044000e-01
2.044000e-01
2.044000e-01
2.044000e-01
2.044000e-01
2.044000e-01
2.044000e-01
2.044000e-01
2.044000e-01
2.044000e-01
2.044000e-01
2.044000e-01
2.044000e-01
2.044000e-01
2.044000e-01
2.044000e-01
2.044000e-01
2.044000e-01
2.044000e-01
2.044000e-01
2.044000e-01
2.044000e-01
2.044000e-01
2.044000e-01
2.044000e-01
2.044000e-01
2.044000e-01
2.044000e-01
2.044000e-01
2.044000e-01
2.044000e-01
2.044000e-01
2.044000e-01
2.044000e-01
2.044000e-01
2.044000e-01
2.044000e-01
2.044000e-01
2.044000e-01
2.044000e-01
2.044000e-01
2.044000e-01
2.044000e-01
2.044000e-01
2.044000e-01
2.044000e-01
2.044000e-01
2.044000e-01
2.044000e-01
2.044000e-01
2.044000e-01
2.044000e-01
2.044000e-01
2.044000e-01
2.044000e-01
2.044000e-01
2.044000e-01
2.044000e-01
2.044000e-01
2.044000e-01
2.044000e-01
2.044000e-01
2.044000e-01
2.044000e-01
2.044000e-01
2.044000e-01
2.044000e-01
2.044000e-01
2.044000e-01
2.044000e-01
2.044000e-01
2.044000e-01
2.044000e-01
2.044000e-01
2.044000e-01
2.044000e-01
2.044000e-01
2.044000e-01
2.044000e-01
2.044000e-01
2.044000e-01
2.044000e-01
2.044000e-01
2.044000e-01
2.044000e-01
2.044000e-01
2.044000e-01
2.044000e-01
2.044000e-01
2.044000e-01
2.044000e-01
2.044000e-01
2.044000e-01
2.044000e-01
2.044000e-01
2.044000e-01
2.044000e-01
2.044000e-01
2.044000e-01
2.044000e-01
2.044000e-01
2.044000e-01
2.044000e-01
2.044000e-01
2.044000e-01
2.044000e-01
2.044000e-01
2.044000e-01
2.044000e-01
2.044000e-01
2.044000e-01
2.044000e-01
2.044000e-01
2.044000e-01
2.044000e-01
2.044000e-01
2.044000e-01
2.044000e-01
2.044000e-01
2.044000e-01
2.044000e-01
2.044000e-01
2.044000e-01
2.044000e-01
2.044000e-01
2.044000e-01
2.044000e-01
2.044000e-01
2.044000e-01
2.044000e-01
2.044000e-01
2.044000e-01
2.044000e-01
2.044000e-01
2.044000e-01
2.044000e-01
2.044000e-01
2.044000e-01
2.044000e-01
2.044000e-01
2.044000e-01
2.044000e-01
2.044000e-01
2.044000e-01
2.044000e-01
2.044000e-01
2.044000e-01
2.044000e-01
2.044000e-01
2.044000e-01
2.044000e-01
2.044000e-01
2.044000e-01
2.044000e-01
2.044000e-01
2.044000e-01
2.044000e-01
2.044000e-01
2.044000e-01
2.044000e-01
2.044000e-01
2.044000e-01
2.044000e-01
2.044000e-01
2.044000e-01
2.044000e-01
2.044000e-01
2.044000e-01
2.044000e-01
2.044000e-01
2.044000e-01
2.044000e-01
2.044000e-01
2.044000e-01
2.044000e-01
2.044000e-01
2.044000e-01
2.044000e-01
2.044000e-01
2.044000e-01
2.044000e-01
2.044000e-01
2.044000e-01
2.044000e-01
2.044000e-01
2.044000e-01
2.044000e-01
2.044000e-01
2.044000e-01
2.044000e-01
2.044000e-01
2.044000e-01
2.044000e-01
2.044000e-01
2.044000e-01
2.044000e-01
2.044000e-01
2.044000e-01
2.044000e-01
2.044000e-01
2.044000e-01
2.044000e-01
2.044000e-01
2.044000e-01
2.044000e-01
2.044000e-01
2.044000e-01
2.044000e-01
2.044000e-01
2.044000e-01
2.044000e-01
2.044000e-01
2.044000e-01
2.044000e-01
2.044000e-01
2.044000e-01
2.044000e-01
2.044000e-01
2.044000e-01
2.044000e-01
2.044000e-01
2.044000e-01
2.044000e-01
2.044000e-01
2.044000e-01
2.044000e-01
2.044000e-01
2.044000e-01
2.044000e-01
2.044000e-01
2.044000e-01
2.044000e-01
2.044000e-01
2.044000e-01
2.044000e-01
2.044000e-01
2.044000e-01
2.044000e-01
2.044000e-01
2.044000e-01
2.044000e-01
2.044000e-01
2.044000e-01
2.044000e-01
2.044000e-01
2.044000e-01
2.044000e-01
2.044000e-01
2.044000e-01
2.044000e-01
2.044000e-01
2.044000e-01
2.044000e-01
2.044000e-01
2.044000e-01
2.044000e-01
2.044000e-01
2.044000e-01
2.044000e-01
2.044000e-01
2.044000e-01
2.044000e-01
2.044000e-01
2.044000e-01
2.044000e-01
2.044000e-01
2.044000e-01
2.044000e-01
2.044000e-01
2.044000e-01
2.044000e-01
2.044000e-01
2.044000e-01
2.044000e-01
2.044000e-01
2.044000e-01
2.044000e-01
2.044000e-01
2.044000e-01
2.044000e-01
2.044000e-01
2.044000e-01
2.044000e-01
2.044000e-01
2.044000e-01
2.044000e-01
2.044000e-01
2.044000e-01
2.044000e-01
2.044000e-01
2.044000e-01
2.044000e-01
2.044000e-01
2.044000e-01
2.044000e-01
2.044000e-01
2.044000e-01
3.544000e-01
3.544000e-01
3.544000e-01
3.544000e-01
3.544000e-01
3.544000e-01
3.544000e-01
3.544000e-01
3.544000e-01
3.544000e-01
3.544000e-01
3.544000e-01
3.544000e-01
3.544000e-01
3.544000e-01
3.544000e-01
3.544000e-01
3.544000e-01
3.544000e-01
3.544000e-01
3.544000e-01
3.544000e-01
3.544000e-01
3.544000e-01
3.544000e-01
3.544000e-01
3.544000e-01
3.544000e-01
3.544000e-01
3.544000e-01
3.544000e-01
3.544000e-01
3.544000e-01
3.142955e-01
3.083676e-01
3.238640e-01
3.131001e-01
3.172467e-01
3.053485e-01
3.042103e-01
2.993475e-01
2.951308e-01
3.118544e-01
3.046624e-01
2.988505e-01
3.085501e-01
2.970154e-01
3.051223e-01
2.273863e-01
3.529892e-01
3.507435e-01
3.459231e-01
3.479511e-01
3.463585e-01
3.420765e-01
3.464092e-01
3.435496e-01
3.406447e-01
3.407924e-01
3.372525e-01
3.335196e-01
3.370758e-01
3.333335e-01
3.295965e-01
3.252077e-01
3.506713e-01
3.327288e-01
3.286089e-01
3.244086e-01
3.218643e-01
3.157985e-01
3.103329e-01
3.151758e-01
3.043923e-01
3.286361e-01
3.199061e-01
3.532916e-01
3.095604e-01
2.968671e-01
3.048248e-01
2.990649e-01
2.932231e-01
2.885182e-01
2.858573e-01
2.912675e-01
2.853496e-01
2.804492e-01
2.766280e-01
2.828953e-01
2.757526e-01
2.710676e-01
2.668304e-01
2.641234e-01
2.603966e-01
2.563470e-01
2.490043e-01
2.450660e-01
2.317437e-01
2.750935e-01
2.590111e-01
2.455139e-01
2.347130e-01
2.218130e-01
3.460090e-01
3.422394e-01
3.538460e-01
3.519029e-01
3.530450e-01
3.488251e-01
3.504176e-01
3.468455e-01
3.426058e-01
3.469145e-01
3.500433e-01
3.528342e-01
2.523544e-01
2.402307e-01
2.232956e-01
2.515248e-01
2.350055e-01
2.171418e-01
3.458100e-01
3.420590e-01
3.537888e-01
3.518048e-01
3.529339e-01
3.487516e-01
3.502639e-01
3.466582e-01
3.424033e-01
2.513650e-01
2.396301e-01
2.240999e-01
2.525749e-01
2.356036e-01
2.172621e-01
3.537443e-01
3.516720e-01
3.527579e-01
3.485527e-01
3.499556e-01
3.463714e-01
3.423552e-01
2.532397e-01
2.407647e-01
2.241024e-01
3.535612e-01
3.509005e-01
3.481445e-01
3.460952e-01
3.435213e-01
3.424527e-01
3.359103e-01
2.527076e-01
2.372675e-01
2.182916e-01
2.789281e-01
2.648646e-01
2.496825e-01
2.313533e-01
2.170508e-01
3.462990e-01
3.426919e-01
3.538165e-01
3.518688e-01
3.529479e-01
3.488252e-01
3.503119e-01
3.466303e-01
3.424217e-01
2.547047e-01
2.422061e-01
2.251238e-01
2.522699e-01
2.362364e-01
3.333787e-01
3.404214e-01
3.450608e-01
3.486425e-01
2.176521e-01
3.537663e-01
3.518402e-01
3.490504e-01
2.544096e-01
2.418218e-01
2.240696e-01
3.442090e-01
3.400559e-01
3.535564e-01
3.512566e-01
3.525226e-01
3.478836e-01
3.492959e-01
3.433593e-01
3.448938e-01
3.375878e-01
3.399860e-01
2.741194e-01
2.609652e-01
2.477464e-01
2.347007e-01
2.201742e-01
2.472416e-01
2.319370e-01
2.159009e-01
3.535286e-01
3.510040e-01
3.521597e-01
3.473628e-01
3.489836e-01
3.451442e-01
3.408058e-01
3.226598e-01
2.494522e-01
2.381602e-01
2.222378e-01
3.538996e-01
3.513506e-01
3.477749e-01
3.451702e-01
3.424789e-01
3.412119e-01
3.340660e-01
2.503925e-01
2.349085e-01
2.172352e-01
2.759893e-01
2.622940e-01
2.476034e-01
2.299188e-01
2.162732e-01
3.448020e-01
3.408099e-01
3.536219e-01
3.513799e-01
3.526434e-01
3.480600e-01
3.495935e-01
3.454289e-01
3.408074e-01
2.522186e-01
2.400824e-01
2.237187e-01
2.489100e-01
2.337977e-01
2.165604e-01
3.449102e-01
3.409749e-01
3.536252e-01
3.142433e-01
3.512959e-01
3.526082e-01
3.478449e-01
3.495982e-01
3.456724e-01
3.411498e-01
2.497206e-01
2.376253e-01
2.220100e-01
2.474614e-01
2.325572e-01
2.159516e-01
3.535693e-01
3.511105e-01
3.522317e-01
3.476233e-01
3.487507e-01
3.441202e-01
3.393915e-01
2.484011e-01
2.369892e-01
2.211643e-01
3.533484e-01
3.513944e-01
3.487785e-01
3.430937e-01
3.439107e-01
3.387752e-01
3.355597e-01
2.476439e-01
2.324108e-01
2.158291e-01
2.786571e-01
2.654613e-01
2.460266e-01
2.324984e-01
2.199266e-01
3.534312e-01
3.504791e-01
3.511573e-01
3.313368e-01
3.381315e-01
3.432010e-01
3.469626e-01
3.493565e-01
3.523258e-01
3.462940e-01
3.473802e-01
3.426775e-01
3.377873e-01
2.474167e-01
2.361146e-01
2.211643e-01
3.533817e-01
3.493750e-01
3.430624e-01
3.385385e-01
3.327304e-01
2.477876e-01
2.323241e-01
2.157738e-01
2.198057e-01
3.473344e-01
3.449734e-01
3.410267e-01
3.405547e-01
3.340471e-01
3.325020e-01
3.344245e-01
3.272667e-01
3.190484e-01
3.220278e-01
3.255444e-01
3.275683e-01
3.109029e-01
3.152883e-01
3.192305e-01
3.178210e-01
2.911612e-01
2.817869e-01
2.746537e-01
2.674652e-01
2.591309e-01
2.491576e-01
2.382338e-01
2.301058e-01
2.202063e-01
2.366370e-01
2.421092e-01
2.519124e-01
2.526087e-01
2.685075e-01
2.647258e-01
2.618331e-01
2.784653e-01
2.742778e-01
2.707721e-01
2.786139e-01
2.915854e-01
2.865990e-01
2.823275e-01
3.032407e-01
2.985578e-01
2.934623e-01
2.894559e-01
2.860644e-01
3.112384e-01
2.938490e-01
3.016752e-01
3.052182e-01
3.512094e-01
2.187228e-01
3.531274e-01
3.529512e-01
3.515889e-01
3.492922e-01
3.538057e-01
3.445648e-01
3.424335e-01
3.394616e-01
3.153436e-01
3.215120e-01
3.293771e-01
3.361796e-01
3.416067e-01
3.457329e-01
3.489333e-01
3.518879e-01
3.538609e-01
3.526092e-01
3.503872e-01
3.470340e-01
3.285666e-01
3.536370e-01
3.519973e-01
3.495939e-01
3.460617e-01
3.419150e-01
3.378978e-01
3.337507e-01
3.540545e-01
3.531854e-01
3.508852e-01
3.490954e-01
3.446984e-01
3.401718e-01
3.359964e-01
3.325662e-01
3.258065e-01
3.195233e-01
2.235503e-01
2.147847e-01
2.512735e-01
2.424786e-01
2.313006e-01
2.204976e-01
2.534751e-01
2.391395e-01
2.876156e-01
2.820004e-01
2.725294e-01
2.592494e-01
2.478036e-01
2.367756e-01
2.259184e-01
2.166485e-01
2.724412e-01
2.621718e-01
3.441624e-01
3.383197e-01
3.318147e-01
3.234927e-01
3.135386e-01
3.018685e-01
2.891535e-01
3.537808e-01
3.523020e-01
3.490067e-01
3.439058e-01
3.373839e-01
3.288117e-01
3.196235e-01
3.092136e-01
2.980338e-01
2.884042e-01
2.770097e-01
2.660386e-01
2.537890e-01
2.373469e-01
2.227619e-01
3.000053e-01
2.928250e-01
2.841788e-01
2.738416e-01
2.629948e-01
2.522568e-01
2.414032e-01
2.306246e-01
2.201351e-01
2.158513e-01
3.338769e-01
3.271917e-01
3.181172e-01
3.070278e-01
2.398452e-01
2.343728e-01
2.208803e-01
2.920846e-01
2.785627e-01
2.641252e-01
2.493256e-01
2.340779e-01
2.210447e-01
3.440841e-01
3.382497e-01
3.315422e-01
3.227598e-01
3.127400e-01
3.015684e-01
2.893630e-01
2.756907e-01
2.622824e-01
2.486007e-01
3.536656e-01
3.521974e-01
3.490191e-01
3.445306e-01
3.377887e-01
3.276392e-01
3.179301e-01
3.071361e-01
2.955087e-01
2.844558e-01
3.536551e-01
3.513483e-01
3.480559e-01
3.444528e-01
3.392219e-01