VARIABLES = "X" "Y" "Z" "FREF"
ZONE T="instant 098"
STRANDID=0, SOLUTIONTIME=0
Nodes=3151, Elements=6298
ZONETYPE=FETriangle
DATAPACKING=BLOCK
VARLOCATION = ([1-3]=NODAL, [4]=CELLCENTERED)
5.000000e-01
2.926370e-01
3.094502e-01
3.225300e-01
3.327983e-01
3.454420e-01
3.584906e-01
3.718317e-01
3.864894e-01
4.023174e-01
4.167535e-01
4.286451e-01
4.392825e-01
4.489919e-01
4.578817e-01
4.657154e-01
4.722680e-01
4.771295e-01
4.816221e-01
4.864855e-01
4.907164e-01
4.939857e-01
4.963372e-01
4.980629e-01
4.992280e-01
4.998612e-01
2.798000e-01
2.798000e-01
2.798000e-01
2.798000e-01
2.798000e-01
2.798000e-01
2.798000e-01
2.798000e-01
2.798000e-01
2.798000e-01
2.798000e-01
2.798000e-01
4.295030e-01
4.287758e-01
4.257816e-01
4.209312e-01
4.110676e-01
4.054346e-01
3.983347e-01
3.887296e-01
3.810711e-01
3.735318e-01
3.652583e-01
3.554757e-01
3.477053e-01
3.406473e-01
3.346277e-01
3.268085e-01
3.186714e-01
3.132230e-01
3.050347e-01
2.927904e-01
4.298000e-01
4.931458e-01
4.863733e-01
4.794709e-01
4.733847e-01
4.662797e-01
4.598611e-01
4.532165e-01
4.468537e-01
4.407905e-01
4.351169e-01
4.413196e-01
3.177334e-01
3.060565e-01
4.495547e-01
4.357603e-01
3.262824e-01
3.342308e-01
3.182347e-01
3.334994e-01
2.962464e-01
3.348691e-01
3.211433e-01
3.362566e-01
3.463023e-01
4.934009e-01
3.557863e-01
3.661470e-01
3.513356e-01
3.592379e-01
4.105318e-01
4.148148e-01
4.440321e-01
4.310911e-01
4.242566e-01
4.492199e-01
4.501633e-01
4.356907e-01
4.900037e-01
4.864813e-01
4.443800e-01
4.521193e-01
4.462570e-01
4.572365e-01
4.483594e-01
4.572647e-01
4.343258e-01
4.437414e-01
4.382686e-01
4.280736e-01
3.203546e-01
3.065119e-01
2.907351e-01
2.946311e-01
2.937715e-01
3.081965e-01
3.198034e-01
2.953315e-01
3.071935e-01
3.211319e-01
3.331309e-01
2.875818e-01
2.959055e-01
3.086657e-01
3.206060e-01
4.914176e-01
3.352726e-01
3.465650e-01
3.493359e-01
3.602734e-01
3.528421e-01
3.616426e-01
3.732245e-01
2.929353e-01
3.067888e-01
3.231521e-01
3.388688e-01
3.404690e-01
3.404695e-01
3.458906e-01
3.532118e-01
3.654075e-01
3.756922e-01
3.818455e-01
3.887042e-01
2.935846e-01
3.082217e-01
3.215832e-01
3.412908e-01
3.512650e-01
3.608713e-01
3.715657e-01
3.683520e-01
3.766460e-01
3.780713e-01
3.869796e-01
3.953865e-01
4.060197e-01
3.522106e-01
3.611252e-01
3.733610e-01
3.872862e-01
4.887844e-01
4.835583e-01
4.822440e-01
4.786369e-01
3.982190e-01
4.073904e-01
4.182360e-01
3.587320e-01
3.812358e-01
3.912170e-01
3.996442e-01
4.094858e-01
4.183626e-01
4.290746e-01
3.701660e-01
3.790364e-01
3.903437e-01
3.930556e-01
4.030977e-01
4.123820e-01
4.858253e-01
4.801166e-01
4.767889e-01
4.733182e-01
4.718279e-01
4.189634e-01
4.277290e-01
4.386720e-01
4.025389e-01
4.150842e-01
4.263116e-01
4.361429e-01
4.477405e-01
3.768397e-01
3.872013e-01
3.962750e-01
4.074091e-01
4.247751e-01
4.362991e-01
4.453805e-01
4.561380e-01
4.162686e-01
4.265667e-01
4.348608e-01
4.452683e-01
4.534632e-01
4.634395e-01
4.611339e-01
4.640777e-01
3.924321e-01
4.020166e-01
4.104632e-01
4.197948e-01
4.276834e-01
4.360408e-01
4.427016e-01
4.530125e-01
4.599221e-01
4.698538e-01
4.545763e-01
4.572170e-01
4.816912e-01
4.761017e-01
4.731389e-01
4.679603e-01
4.666699e-01
4.638509e-01
4.608515e-01
4.573436e-01
4.610635e-01
4.640732e-01
4.682508e-01
4.706666e-01
4.763840e-01
2.798000e-01
4.998245e-01
4.985602e-01
4.964570e-01
4.940899e-01
4.899809e-01
4.851766e-01
4.787439e-01
4.699778e-01
4.594523e-01
4.488500e-01
4.389917e-01
4.283721e-01
4.174771e-01
4.057088e-01
3.952315e-01
3.866269e-01
3.780069e-01
3.678543e-01
3.569797e-01
3.459956e-01
3.349684e-01
3.237383e-01
3.124235e-01
3.008024e-01
2.896370e-01
5.000000e-01
4.352348e-01
4.413217e-01
4.466949e-01
4.535010e-01
4.592310e-01
4.660008e-01
4.728569e-01
4.804316e-01
4.870511e-01
4.938047e-01
4.298000e-01
2.888141e-01
2.976508e-01
3.096444e-01
3.314950e-01
3.436447e-01
3.549878e-01
3.661898e-01
3.756577e-01
3.833586e-01
3.879917e-01
3.947571e-01
4.011450e-01
4.060641e-01
4.098119e-01
4.128290e-01
4.175965e-01
4.211908e-01
4.231166e-01
4.253616e-01
4.276306e-01
4.293176e-01
2.798000e-01
2.798000e-01
2.798000e-01
2.798000e-01
2.798000e-01
2.798000e-01
2.798000e-01
2.798000e-01
2.798000e-01
2.798000e-01
2.798000e-01
4.446346e-01
4.571523e-01
3.067147e-01
3.345684e-01
3.232272e-01
4.282910e-01
4.285698e-01
4.385157e-01
4.339896e-01
4.476842e-01
4.453992e-01
4.507586e-01
4.359907e-01
4.611961e-01
2.910850e-01
4.586584e-01
4.477739e-01
4.580845e-01
4.399612e-01
4.521636e-01
4.462486e-01
4.595830e-01
4.535605e-01
2.923984e-01
3.474320e-01
3.077105e-01
3.032765e-01
2.947447e-01
3.364501e-01
3.567143e-01
3.178808e-01
3.511771e-01
3.319951e-01
3.541758e-01
3.407319e-01
3.609966e-01
3.672557e-01
2.999343e-01
4.338208e-01
2.918659e-01
3.013059e-01
3.190606e-01
4.276407e-01
4.341552e-01
4.396502e-01
4.926756e-01
4.847921e-01
4.893225e-01
4.893294e-01
4.740958e-01
4.780015e-01
4.798100e-01
4.821154e-01
3.142852e-01
3.059705e-01
2.924074e-01
4.848162e-01
4.724634e-01
4.737498e-01
4.759536e-01
4.811548e-01
4.680547e-01
4.690454e-01
4.737257e-01
4.768548e-01
4.225800e-01
4.245484e-01
4.284735e-01
4.550872e-01
4.608554e-01
4.684485e-01
4.542962e-01
4.621092e-01
4.639218e-01
4.666601e-01
4.663721e-01
4.667632e-01
4.685826e-01
4.165765e-01
4.307339e-01
4.375392e-01
4.460215e-01
4.505031e-01
4.536359e-01
4.575095e-01
4.168911e-01
4.173498e-01
4.201327e-01
4.375326e-01
4.426708e-01
3.259133e-01
3.171912e-01
4.442568e-01
4.476449e-01
4.062729e-01
4.212547e-01
4.234461e-01
4.303205e-01
4.339935e-01
4.346559e-01
4.376252e-01
4.065770e-01
4.059544e-01
4.073738e-01
4.204062e-01
4.241707e-01
4.248067e-01
4.273801e-01
4.054118e-01
3.363511e-01
3.263467e-01
3.164780e-01
3.038195e-01
2.912051e-01
4.059092e-01
4.119659e-01
4.146068e-01
4.142269e-01
4.165524e-01
3.917123e-01
3.921322e-01
3.894280e-01
3.914780e-01
4.015215e-01
4.032541e-01
4.031393e-01
4.054349e-01
3.892020e-01
3.903174e-01
3.886984e-01
3.919986e-01
3.927069e-01
3.940112e-01
2.937838e-01
3.060589e-01
3.238636e-01
3.349066e-01
3.455410e-01
3.572862e-01
3.684910e-01
3.722842e-01
3.700021e-01
3.763432e-01
3.771115e-01
3.724634e-01
3.758166e-01
3.767098e-01
3.828151e-01
3.805622e-01
3.805307e-01
3.472258e-01
3.372880e-01
3.281828e-01
3.171294e-01
3.055833e-01
2.918846e-01
3.496122e-01
3.585557e-01
3.685778e-01
3.311575e-01
3.398203e-01
3.483070e-01
3.581203e-01
5.000000e-01
5.000000e-01
5.000000e-01
5.000000e-01
5.000000e-01
5.000000e-01
5.000000e-01
5.000000e-01
5.000000e-01
5.000000e-01
5.000000e-01
5.000000e-01
5.000000e-01
5.000000e-01
5.000000e-01
5.000000e-01
5.000000e-01
5.000000e-01
5.000000e-01
5.000000e-01
5.000000e-01
5.000000e-01
5.000000e-01
5.000000e-01
5.000000e-01
5.000000e-01
5.000000e-01
5.000000e-01
5.000000e-01
5.000000e-01
5.000000e-01
5.000000e-01
5.000000e-01
2.798000e-01
2.798000e-01
2.798000e-01
2.798000e-01
2.798000e-01
2.798000e-01
2.798000e-01
2.798000e-01
2.798000e-01
2.798000e-01
2.798000e-01
2.798000e-01
2.798000e-01
2.798000e-01
2.798000e-01
2.798000e-01
2.798000e-01
2.798000e-01
2.798000e-01
2.798000e-01
2.798000e-01
2.798000e-01
2.798000e-01
2.798000e-01
2.798000e-01
2.798000e-01
2.798000e-01
2.798000e-01
2.798000e-01
2.798000e-01
2.798000e-01
2.798000e-01
2.798000e-01
4.138289e-01
4.208087e-01
4.176712e-01
4.245148e-01
4.316778e-01
4.461815e-01
4.349384e-01
4.397144e-01
3.895268e-01
3.961455e-01
4.009191e-01
4.024111e-01
4.071130e-01
4.107633e-01
4.151508e-01
4.309346e-01
4.197262e-01
4.141179e-01
4.248298e-01
4.353842e-01
4.084064e-01
4.084371e-01
2.981090e-01
2.908322e-01
4.179449e-01
4.285886e-01
4.391767e-01
4.272390e-01
4.342650e-01
4.414459e-01
4.366869e-01
4.432187e-01
4.456098e-01
4.596038e-01
4.373917e-01
4.452281e-01
4.339018e-01
4.488712e-01
4.392338e-01
4.289415e-01
4.523327e-01
4.433811e-01
4.345912e-01
4.256022e-01
4.518939e-01
4.587312e-01
4.562425e-01
4.496314e-01
4.438500e-01
3.126543e-01
3.036112e-01
2.933131e-01
4.226830e-01
4.289831e-01
4.344381e-01
4.176974e-01
4.240592e-01
4.129181e-01
2.908686e-01
2.989817e-01
3.009192e-01
3.089567e-01
3.113046e-01
3.175763e-01
3.197202e-01
3.220934e-01
3.224966e-01
3.276152e-01
3.305710e-01
3.331561e-01
3.338278e-01
3.383891e-01
3.416192e-01
3.443870e-01
3.405506e-01
3.453854e-01
3.495305e-01
3.528063e-01
3.556853e-01
3.483086e-01
3.526169e-01
3.570013e-01
3.608599e-01
3.640418e-01
3.669502e-01
3.555795e-01
3.257315e-01
3.170611e-01
3.076396e-01
2.977938e-01
2.914454e-01
3.601802e-01
3.644862e-01
3.685993e-01
3.722458e-01
3.752021e-01
3.780689e-01
3.671065e-01
3.720101e-01
3.761833e-01
3.801210e-01
3.836385e-01
3.861236e-01
3.889228e-01
3.731890e-01
3.788939e-01
3.838791e-01
3.876385e-01
3.915182e-01
3.951049e-01
3.965069e-01
3.994229e-01
3.792121e-01
3.850102e-01
3.907153e-01
3.958810e-01
3.985985e-01
4.027870e-01
4.070689e-01
4.056337e-01
4.098661e-01
4.171493e-01
4.431807e-01
4.041857e-01
4.139108e-01
4.242712e-01
3.386081e-01
3.304827e-01
3.216502e-01
3.126749e-01
3.046876e-01
2.965905e-01
4.345398e-01
3.974423e-01
4.082547e-01
4.194064e-01
4.300215e-01
4.395260e-01
4.483181e-01
4.200232e-01
4.259301e-01
4.300524e-01
4.337637e-01
4.370379e-01
4.413761e-01
4.456760e-01
4.496205e-01
4.496036e-01
4.516189e-01
4.538952e-01
4.558387e-01
4.574217e-01
4.594207e-01
4.415126e-01
4.467725e-01
4.513508e-01
4.555117e-01
4.594232e-01
4.627175e-01
4.646886e-01
4.495570e-01
4.517791e-01
4.560179e-01
4.610655e-01
4.645526e-01
4.672038e-01
4.695491e-01
4.580816e-01
4.661418e-01
4.651324e-01
4.707107e-01
4.718576e-01
4.740059e-01
4.765647e-01
4.782633e-01
4.652330e-01
4.739684e-01
4.789454e-01
4.820967e-01
4.720714e-01
4.793802e-01
4.825667e-01
4.852966e-01
4.831093e-01
4.885767e-01
3.516811e-01
3.438338e-01
3.353509e-01
3.266748e-01
3.182171e-01
3.095751e-01
2.994617e-01
2.922353e-01
4.868657e-01
4.917382e-01
4.884608e-01
4.924256e-01
4.964251e-01
4.988002e-01
4.973381e-01
4.954541e-01
4.952051e-01
4.932439e-01
4.923146e-01
4.926718e-01
4.887139e-01
4.891343e-01
4.897710e-01
4.906009e-01
4.844416e-01
4.848365e-01
4.855341e-01
4.864599e-01
4.875456e-01
4.797674e-01
4.805151e-01
4.815319e-01
4.827692e-01
4.841320e-01
4.787835e-01
4.804205e-01
4.738849e-01
4.747038e-01
4.757927e-01
4.771829e-01
4.672122e-01
4.681024e-01
4.692189e-01
4.707417e-01
4.726280e-01
4.746088e-01
4.764131e-01
4.599111e-01
4.607627e-01
4.618022e-01
4.633775e-01
4.656052e-01
4.680629e-01
4.702726e-01
4.717998e-01
4.443729e-01
4.447952e-01
4.528072e-01
4.535885e-01
4.549688e-01
4.576771e-01
4.605625e-01
4.639392e-01
4.645945e-01
4.671026e-01
4.455621e-01
4.530985e-01
4.406507e-01
3.152788e-01
3.330847e-01
3.230166e-01
3.369478e-01
3.322479e-01
3.500291e-01
3.466054e-01
3.415537e-01
3.668740e-01
3.605982e-01
3.650487e-01
3.571883e-01
3.488437e-01
3.403208e-01
3.317896e-01
3.231242e-01
3.140845e-01
3.056271e-01
2.970027e-01
3.558798e-01
3.509469e-01
3.817440e-01
3.752088e-01
3.696942e-01
3.647641e-01
3.599992e-01
3.893637e-01
3.835041e-01
3.783347e-01
3.735324e-01
3.688816e-01
4.028860e-01
3.968559e-01
3.914762e-01
3.866295e-01
3.820373e-01
3.774840e-01
4.154612e-01
4.096940e-01
4.041613e-01
3.992842e-01
3.947783e-01
3.903629e-01
3.857904e-01
4.267974e-01
4.219845e-01
4.161958e-01
4.113407e-01
4.069331e-01
4.027991e-01
3.984041e-01
3.936884e-01
4.361814e-01
4.343337e-01
4.274327e-01
4.228194e-01
4.183673e-01
4.146621e-01
4.106719e-01
4.059184e-01
4.011653e-01
4.635921e-01
4.573013e-01
4.493350e-01
4.403373e-01
4.303978e-01
4.196646e-01
4.083054e-01
4.556308e-01
4.468709e-01
4.370894e-01
4.261385e-01
4.150985e-01
2.911363e-01
2.898914e-01
2.916893e-01
3.029114e-01
2.993634e-01
3.055972e-01
3.147692e-01
2.907161e-01
3.006547e-01
3.097584e-01
3.176562e-01
3.264098e-01
2.912278e-01
3.017819e-01
3.115772e-01
3.207111e-01
3.292403e-01
3.378815e-01
3.786851e-01
3.704993e-01
3.621330e-01
3.537207e-01
3.452604e-01
3.366819e-01
3.279160e-01
3.191591e-01
3.101097e-01
3.001264e-01
2.917296e-01
2.887014e-01
2.938446e-01
3.032622e-01
3.131266e-01
3.227211e-01
3.318696e-01
3.406713e-01
3.492570e-01
2.880497e-01
2.908330e-01
2.992837e-01
3.062513e-01
3.151106e-01
3.245619e-01
3.339490e-01
3.431080e-01
3.520117e-01
3.606237e-01
2.935725e-01
3.021584e-01
3.102723e-01
3.179392e-01
3.267193e-01
3.359347e-01
3.451987e-01
3.542959e-01
3.632298e-01
3.720744e-01
3.818839e-01
2.893007e-01
2.976583e-01
3.052232e-01
3.135065e-01
3.214225e-01
3.292206e-01
3.381137e-01
3.472120e-01
3.563599e-01
3.653574e-01
3.741667e-01
3.829139e-01
3.906895e-01
2.900027e-01
2.994415e-01
3.075157e-01
3.164806e-01
3.249212e-01
3.326192e-01
3.400871e-01
3.494042e-01
3.582971e-01
3.674068e-01
3.762453e-01
3.848623e-01
3.937554e-01
4.001884e-01
2.855072e-01
2.913544e-01
3.002037e-01
3.100618e-01
3.172320e-01
3.281060e-01
3.364896e-01
3.438968e-01
3.502020e-01
3.609802e-01
3.690987e-01
3.783494e-01
3.869316e-01
3.951091e-01
4.053110e-01
4.096111e-01
3.924864e-01
3.836622e-01
3.751288e-01
3.668379e-01
3.585380e-01
3.501083e-01
3.414949e-01
3.327079e-01
3.236535e-01
3.141107e-01
3.044259e-01
2.933927e-01
4.994371e-01
4.998053e-01
4.980897e-01
4.990957e-01
4.997542e-01
4.961139e-01
4.977139e-01
4.989199e-01
4.997099e-01
4.910816e-01
4.935596e-01
4.956728e-01
4.974253e-01
4.987809e-01
4.996726e-01
4.812407e-01
4.868713e-01
4.902332e-01
4.929321e-01
4.952310e-01
4.971494e-01
4.986437e-01
4.996344e-01
4.830461e-01
4.863947e-01
4.895009e-01
4.923079e-01
4.947700e-01
4.968461e-01
4.984779e-01
4.995790e-01
4.746787e-01
4.781586e-01
4.817571e-01
4.853301e-01
4.886308e-01
4.916125e-01
4.942359e-01
4.964554e-01
4.982131e-01
4.994358e-01
4.997631e-01
4.671516e-01
4.720544e-01
4.763436e-01
4.803975e-01
4.841896e-01
4.876707e-01
4.908083e-01
4.935626e-01
4.958785e-01
4.976766e-01
4.988658e-01
4.996903e-01
4.529481e-01
4.596000e-01
4.652312e-01
4.701811e-01
4.747431e-01
4.790078e-01
4.829640e-01
4.865863e-01
4.898462e-01
4.927057e-01
4.951224e-01
4.970687e-01
4.985956e-01
4.996244e-01
4.352636e-01
4.444004e-01
4.516856e-01
4.579617e-01
4.634020e-01
4.684174e-01
4.059307e-01
3.964534e-01
3.876358e-01
3.795744e-01
3.715383e-01
3.633347e-01
3.549032e-01
3.462295e-01
3.372508e-01
3.279378e-01
3.182835e-01
3.081379e-01
2.977899e-01
4.731272e-01
4.775294e-01
4.816014e-01
4.853287e-01
4.886902e-01
4.916626e-01
4.942560e-01
4.964954e-01
4.983369e-01
4.995650e-01
2.905969e-01
3.016141e-01
3.127547e-01
3.240503e-01
3.354687e-01
3.469679e-01
3.584689e-01
3.698953e-01
3.811682e-01
3.922344e-01
4.030908e-01
4.137219e-01
4.240470e-01
4.340987e-01
4.436917e-01
4.526348e-01
4.608438e-01
4.686661e-01
4.762317e-01
4.815470e-01
4.866152e-01
4.918805e-01
4.955159e-01
4.983085e-01
4.271869e-01
4.369308e-01
4.437479e-01
4.504873e-01
4.561161e-01
4.614690e-01
4.665894e-01
4.714164e-01
4.758980e-01
4.800403e-01
4.838536e-01
4.872804e-01
4.903494e-01
4.931857e-01
4.956901e-01
4.982005e-01
4.993656e-01
2.912535e-01
3.027430e-01
3.143186e-01
3.259995e-01
3.377593e-01
3.495506e-01
3.613059e-01
3.729548e-01
3.844335e-01
3.956917e-01
4.066857e-01
4.173610e-01
4.276550e-01
4.375068e-01
4.468314e-01
4.555696e-01
4.636773e-01
4.711419e-01
4.777773e-01
4.836341e-01
4.887633e-01
4.931830e-01
4.966276e-01
4.990004e-01
2.918445e-01
3.038520e-01
3.158829e-01
3.279729e-01
3.400964e-01
3.522078e-01
3.642361e-01
3.761128e-01
3.877710e-01
3.991522e-01
4.101992e-01
4.208531e-01
4.310544e-01
4.407459e-01
4.498737e-01
4.583901e-01
4.662470e-01
4.733949e-01
4.797877e-01
4.854246e-01
4.902674e-01
4.942671e-01
4.973141e-01
4.992852e-01
2.924347e-01
3.049499e-01
3.174770e-01
3.300137e-01
3.425397e-01
3.549863e-01
3.672881e-01
3.793712e-01
3.911706e-01
4.184157e-01
4.086359e-01
3.993288e-01
3.918189e-01
3.841879e-01
3.762942e-01
3.681155e-01
3.596305e-01
3.508355e-01
3.417102e-01
3.322691e-01
3.225149e-01
3.123586e-01
3.019024e-01
2.938980e-01
4.026251e-01
4.136779e-01
4.242735e-01
4.343583e-01
4.438828e-01
4.528021e-01
4.610735e-01
4.686557e-01
4.755128e-01
4.816165e-01
4.869389e-01
4.914401e-01
4.950677e-01
4.977580e-01
4.994277e-01
2.929200e-01
3.060590e-01
3.191654e-01
3.322266e-01
3.451744e-01
3.579592e-01
3.705106e-01
3.827664e-01
3.946644e-01
4.061501e-01
4.171723e-01
4.276799e-01
4.376224e-01
4.469552e-01
4.556411e-01
4.636436e-01
4.709295e-01
4.774731e-01
4.832511e-01
4.882342e-01
4.923878e-01
4.956779e-01
4.980662e-01
4.995152e-01
2.936082e-01
3.074531e-01
3.212157e-01
3.347889e-01
3.481397e-01
3.612182e-01
3.739694e-01
3.863442e-01
3.982898e-01
4.097652e-01
4.207266e-01
4.311210e-01
4.408935e-01
4.500006e-01
4.584229e-01
4.661269e-01
4.730883e-01
4.792928e-01
4.847291e-01
4.893671e-01
4.931851e-01
4.961681e-01
4.983029e-01
4.995789e-01
2.948130e-01
3.094988e-01
3.238670e-01
3.378754e-01
3.515630e-01
3.648541e-01
3.777175e-01
3.901317e-01
4.020594e-01
4.134946e-01
4.243824e-01
4.346518e-01
4.442302e-01
4.530588e-01
4.611819e-01
4.685473e-01
4.751584e-01
4.810043e-01
4.860957e-01
4.903849e-01
4.938803e-01
4.965888e-01
4.985046e-01
4.996341e-01
2.962497e-01
3.122705e-01
3.271537e-01
3.415680e-01
3.555464e-01
3.689972e-01
3.817604e-01
3.940764e-01
4.059050e-01
4.173686e-01
4.281877e-01
4.383409e-01
4.477456e-01
4.561818e-01
4.639397e-01
4.708831e-01
4.771897e-01
4.826646e-01
4.873948e-01
4.912899e-01
4.944956e-01
4.969815e-01
4.297911e-01
4.201575e-01
4.096305e-01
4.035374e-01
3.964448e-01
3.889259e-01
3.810651e-01
3.728462e-01
3.642764e-01
3.553917e-01
3.462404e-01
3.367567e-01
3.272062e-01
3.172712e-01
3.082868e-01
2.978695e-01
4.987099e-01
4.996962e-01
2.995665e-01
3.169674e-01
3.310472e-01
3.457583e-01
3.604228e-01
3.740672e-01
3.860565e-01
3.965850e-01
4.098308e-01
4.215787e-01
4.321615e-01
4.421901e-01
4.518935e-01
4.597255e-01
4.662746e-01
4.729635e-01
4.794787e-01
4.845854e-01
4.884049e-01
4.919797e-01
4.950232e-01
4.974404e-01
4.990300e-01
4.997440e-01
4.997551e-01
4.996642e-01
4.989390e-01
4.997704e-01
4.994198e-01
4.985982e-01
4.974892e-01
4.996689e-01
4.989374e-01
4.980745e-01
4.968285e-01
4.953742e-01
4.994782e-01
4.985885e-01
4.973918e-01
4.960134e-01
4.943593e-01
4.925440e-01
4.996787e-01
4.988006e-01
4.980790e-01
4.967397e-01
4.950857e-01
4.932340e-01
4.911683e-01
4.889576e-01
4.846618e-01
4.995632e-01
4.986094e-01
4.972889e-01
4.959239e-01
4.941233e-01
4.920153e-01
4.897127e-01
4.872567e-01
4.797597e-01
4.997752e-01
4.993599e-01
4.983030e-01
4.968100e-01
4.950135e-01
4.930561e-01
4.907505e-01
4.881740e-01
4.854469e-01
4.826345e-01
4.742507e-01
4.996389e-01
4.988875e-01
4.978461e-01
4.962463e-01
4.942418e-01
4.919456e-01
4.894243e-01
4.866166e-01
4.835514e-01
4.804243e-01
4.773108e-01
4.994354e-01
4.985098e-01
4.972187e-01
4.955553e-01
4.934243e-01
4.909119e-01
4.880975e-01
4.850353e-01
4.817231e-01
4.781091e-01
4.746326e-01
4.712758e-01
4.677917e-01
4.600561e-01
4.997103e-01
4.988614e-01
4.980255e-01
4.966116e-01
4.947634e-01
4.925098e-01
4.898402e-01
4.868146e-01
4.834655e-01
4.798739e-01
4.761015e-01
4.717413e-01
4.680666e-01
4.645807e-01
4.314525e-01
4.402498e-01
4.996109e-01
4.988001e-01
4.975067e-01
4.959803e-01
4.939786e-01
4.915388e-01
4.887027e-01
4.855030e-01
4.819688e-01
4.780468e-01
4.739300e-01
4.698916e-01
4.640931e-01
4.607979e-01
4.575655e-01
4.498988e-01
2.798000e-01
2.798000e-01
2.798000e-01
2.798000e-01
2.798000e-01
2.798000e-01
2.798000e-01
2.798000e-01
2.798000e-01
2.798000e-01
2.798000e-01
2.798000e-01
2.798000e-01
2.798000e-01
2.798000e-01
2.798000e-01
2.798000e-01
2.798000e-01
2.798000e-01
2.798000e-01
2.798000e-01
2.798000e-01
2.798000e-01
2.798000e-01
2.798000e-01
2.798000e-01
2.798000e-01
2.798000e-01
2.798000e-01
2.798000e-01
2.798000e-01
2.798000e-01
2.798000e-01
2.798000e-01
2.798000e-01
2.798000e-01
2.798000e-01
2.798000e-01
2.798000e-01
2.798000e-01
2.798000e-01
2.798000e-01
2.798000e-01
2.798000e-01
2.798000e-01
2.798000e-01
2.798000e-01
2.798000e-01
2.798000e-01
2.798000e-01
2.798000e-01
2.798000e-01
2.798000e-01
2.798000e-01
2.798000e-01
2.798000e-01
2.798000e-01
2.798000e-01
2.798000e-01
2.798000e-01
2.798000e-01
2.798000e-01
2.798000e-01
2.798000e-01
2.798000e-01
2.798000e-01
2.798000e-01
2.798000e-01
2.798000e-01
2.798000e-01
2.798000e-01
2.798000e-01
2.798000e-01
2.798000e-01
2.798000e-01
2.798000e-01
2.798000e-01
2.798000e-01
2.798000e-01
2.798000e-01
2.798000e-01
2.798000e-01
2.798000e-01
2.798000e-01
2.798000e-01
2.798000e-01
2.798000e-01
2.798000e-01
2.798000e-01
2.798000e-01
2.798000e-01
2.798000e-01
2.798000e-01
2.798000e-01
2.798000e-01
2.798000e-01
2.798000e-01
2.798000e-01
2.798000e-01
2.798000e-01
2.798000e-01
2.798000e-01
2.798000e-01
2.798000e-01
2.798000e-01
2.798000e-01
2.798000e-01
2.798000e-01
2.798000e-01
2.798000e-01
2.798000e-01
2.798000e-01
2.798000e-01
2.798000e-01
2.798000e-01
2.798000e-01
2.798000e-01
2.798000e-01
2.798000e-01
2.798000e-01
2.798000e-01
2.798000e-01
2.798000e-01
2.798000e-01
2.798000e-01
2.798000e-01
2.798000e-01
2.798000e-01
2.798000e-01
2.798000e-01
2.798000e-01
2.798000e-01
2.798000e-01
2.798000e-01
2.798000e-01
2.798000e-01
2.798000e-01
2.798000e-01
2.798000e-01
2.798000e-01
2.798000e-01
2.798000e-01
2.798000e-01
2.798000e-01
2.798000e-01
2.798000e-01
2.798000e-01
2.798000e-01
2.798000e-01
2.798000e-01
2.798000e-01
2.798000e-01
2.798000e-01
2.798000e-01
2.798000e-01
2.798000e-01
2.798000e-01
2.798000e-01
2.798000e-01
2.798000e-01
2.798000e-01
2.798000e-01
2.798000e-01
2.798000e-01
2.798000e-01
2.798000e-01
2.798000e-01
2.798000e-01
2.798000e-01
2.798000e-01
2.798000e-01
2.798000e-01
2.798000e-01
2.798000e-01
2.798000e-01
2.798000e-01
2.798000e-01
2.798000e-01
2.798000e-01
2.798000e-01
2.798000e-01
2.798000e-01
2.798000e-01
2.798000e-01
2.798000e-01
2.798000e-01
2.798000e-01
2.798000e-01
2.798000e-01
2.798000e-01
2.798000e-01
2.798000e-01
2.798000e-01
2.798000e-01
2.798000e-01
2.798000e-01
2.798000e-01
2.798000e-01
2.798000e-01
2.798000e-01
2.798000e-01
2.798000e-01
2.798000e-01
2.798000e-01
2.798000e-01
2.798000e-01
2.798000e-01
2.798000e-01
2.798000e-01
2.798000e-01
2.798000e-01
2.798000e-01
2.798000e-01
2.798000e-01
2.798000e-01
2.798000e-01
2.798000e-01
2.798000e-01
2.798000e-01
2.798000e-01
2.798000e-01
2.798000e-01
2.798000e-01
2.798000e-01
2.798000e-01
2.798000e-01
2.798000e-01
2.798000e-01
2.798000e-01
2.798000e-01
2.798000e-01
2.798000e-01
2.798000e-01
2.798000e-01
2.798000e-01
2.798000e-01
2.798000e-01
2.798000e-01
2.798000e-01
2.798000e-01
2.798000e-01
2.798000e-01
2.798000e-01
2.798000e-01
2.798000e-01
2.798000e-01
2.798000e-01
2.798000e-01
2.798000e-01
2.798000e-01
2.798000e-01
2.798000e-01
2.798000e-01
2.798000e-01
2.798000e-01
2.798000e-01
2.798000e-01
2.798000e-01
2.798000e-01
2.798000e-01
2.798000e-01
2.798000e-01
2.798000e-01
2.798000e-01
2.798000e-01
2.798000e-01
2.798000e-01
2.798000e-01
2.798000e-01
2.798000e-01
2.798000e-01
2.798000e-01
2.798000e-01
2.798000e-01
2.798000e-01
2.798000e-01
2.798000e-01
2.798000e-01
2.798000e-01
2.798000e-01
2.798000e-01
2.798000e-01
2.798000e-01
2.798000e-01
2.798000e-01
2.798000e-01
2.798000e-01
2.798000e-01
2.798000e-01
2.798000e-01
2.798000e-01
2.798000e-01
2.798000e-01
2.798000e-01
2.798000e-01
2.798000e-01
2.798000e-01
2.798000e-01
2.798000e-01
2.798000e-01
2.798000e-01
2.798000e-01
2.798000e-01
2.798000e-01
2.798000e-01
2.798000e-01
2.798000e-01
2.798000e-01
2.798000e-01
2.798000e-01
2.798000e-01
2.798000e-01
2.798000e-01
2.798000e-01
2.798000e-01
2.798000e-01
2.798000e-01
2.798000e-01
2.798000e-01
2.798000e-01
2.798000e-01
2.798000e-01
2.798000e-01
2.798000e-01
2.798000e-01
2.798000e-01
2.798000e-01
2.798000e-01
2.798000e-01
2.798000e-01
2.798000e-01
2.798000e-01
2.798000e-01
2.798000e-01
2.798000e-01
2.798000e-01
2.798000e-01
2.798000e-01
2.798000e-01
2.798000e-01
2.798000e-01
2.798000e-01
2.798000e-01
2.798000e-01
2.798000e-01
2.798000e-01
2.798000e-01
2.798000e-01
2.798000e-01
2.798000e-01
2.798000e-01
2.798000e-01
2.798000e-01
2.798000e-01
2.798000e-01
2.798000e-01
2.798000e-01
2.798000e-01
2.798000e-01
2.798000e-01
2.798000e-01
2.798000e-01
2.798000e-01
2.798000e-01
2.798000e-01
2.798000e-01
2.798000e-01
2.798000e-01
2.798000e-01
2.798000e-01
4.298000e-01
4.298000e-01
4.298000e-01
4.298000e-01
4.298000e-01
4.298000e-01
4.298000e-01
4.298000e-01
4.298000e-01
4.298000e-01
4.298000e-01
4.298000e-01
4.298000e-01
4.298000e-01
4.298000e-01
4.298000e-01
4.298000e-01
4.298000e-01
4.298000e-01
4.298000e-01
4.298000e-01
4.298000e-01
4.298000e-01
4.298000e-01
4.298000e-01
4.298000e-01
4.298000e-01
4.298000e-01
4.298000e-01
4.298000e-01
4.298000e-01
4.298000e-01
4.298000e-01
3.927485e-01
3.868931e-01
4.018013e-01
3.912212e-01
3.952524e-01
3.837797e-01
3.832557e-01
3.784159e-01
3.747023e-01
3.868120e-01
3.786614e-01
3.725608e-01
3.821012e-01
3.703375e-01
3.780296e-01
3.036474e-01
4.284759e-01
4.264053e-01
4.219515e-01
4.237885e-01
4.223434e-01
4.184760e-01
4.223797e-01
4.197769e-01
4.171029e-01
4.172077e-01
4.139282e-01
4.104264e-01
4.137771e-01
4.103090e-01
4.067427e-01
4.026049e-01
4.271216e-01
4.099131e-01
4.060581e-01
4.020268e-01
3.995559e-01
3.937136e-01
3.907248e-01
3.945591e-01
3.848373e-01
4.064028e-01
3.984189e-01
4.291498e-01
3.888925e-01
3.768439e-01
3.828697e-01
3.773534e-01
3.721579e-01
3.681022e-01
3.659087e-01
3.692225e-01
3.640459e-01
3.597002e-01
3.563935e-01
3.610627e-01
3.543558e-01
3.498091e-01
3.458845e-01
3.420259e-01
3.384562e-01
3.345544e-01
3.266040e-01
3.224671e-01
3.081311e-01
3.525132e-01
3.361272e-01
3.225045e-01
3.119403e-01
2.992270e-01
4.220234e-01
4.186570e-01
4.293114e-01
4.275136e-01
4.286119e-01
4.246374e-01
4.261039e-01
4.228047e-01
4.190086e-01
4.238524e-01
4.261364e-01
4.285143e-01
3.292974e-01
3.178519e-01
3.008064e-01
3.284180e-01
3.123947e-01
2.941191e-01
4.217879e-01
4.184545e-01
4.292052e-01
4.273352e-01
4.284454e-01
4.245080e-01
4.258719e-01
4.225639e-01
4.187739e-01
3.279777e-01
3.170083e-01
3.021105e-01
3.294117e-01
3.127967e-01
2.939862e-01
4.291450e-01
4.271683e-01
4.282725e-01
4.242721e-01
4.255601e-01
4.222794e-01
4.187044e-01
3.299184e-01
3.180364e-01
3.015090e-01
4.290342e-01
4.264227e-01
4.239308e-01
4.219758e-01
4.197486e-01
4.187258e-01
4.126090e-01
3.295834e-01
3.144807e-01
2.947927e-01
3.562352e-01
3.415988e-01
3.263384e-01
3.080758e-01
2.936713e-01
4.220292e-01
4.187880e-01
4.292137e-01
4.273547e-01
4.283956e-01
4.244461e-01
4.258157e-01
4.223807e-01
4.185623e-01
3.311933e-01
3.193683e-01
3.024155e-01
3.289202e-01
3.132740e-01
4.071409e-01
4.166374e-01
4.210619e-01
4.242943e-01
2.941590e-01
4.290932e-01
4.272280e-01
4.245564e-01
3.309010e-01
3.187883e-01
3.011420e-01
4.199319e-01
4.161945e-01
4.288683e-01
4.265770e-01
4.278566e-01
4.234007e-01
4.246947e-01
4.192560e-01
4.205793e-01
4.139071e-01
4.161266e-01
3.509352e-01
3.373557e-01
3.244427e-01
3.117701e-01
2.975721e-01
3.233403e-01
3.086283e-01
2.925265e-01
4.288119e-01
4.263081e-01
4.274156e-01
4.228346e-01
4.243683e-01
4.207776e-01
4.168620e-01
3.948345e-01
3.255254e-01
3.146948e-01
2.991200e-01
4.292727e-01
4.266931e-01
4.232710e-01
4.207707e-01
4.183761e-01
4.171623e-01
4.103178e-01
3.262034e-01
3.112892e-01
2.933189e-01
3.523178e-01
3.381526e-01
3.233739e-01
3.059123e-01
2.924304e-01
4.203148e-01
4.166717e-01
4.289553e-01
4.267098e-01
4.279815e-01
4.234521e-01
4.249147e-01
4.209257e-01
4.166556e-01
3.278204e-01
3.163230e-01
3.001295e-01
3.245675e-01
3.099501e-01
2.925822e-01
4.202855e-01
4.167174e-01
4.289299e-01
3.858827e-01
4.265557e-01
4.278772e-01
4.231681e-01
4.248124e-01
4.210596e-01
4.169432e-01
3.250458e-01
3.135972e-01
2.984264e-01
3.228994e-01
3.084164e-01
2.918285e-01
4.288059e-01
4.262478e-01
4.273715e-01
4.227872e-01
4.238316e-01
4.193525e-01
4.149428e-01
3.236809e-01
3.126775e-01
2.971161e-01
4.284531e-01
4.264304e-01
4.238666e-01
4.179852e-01
4.190715e-01
4.139453e-01
4.111155e-01
3.227879e-01
3.079921e-01
2.914172e-01
3.546982e-01
3.413606e-01
3.209351e-01
3.080093e-01
2.960507e-01
4.285264e-01
4.252947e-01
4.257337e-01
4.054587e-01
4.134211e-01
4.187777e-01
4.222073e-01
4.243481e-01
4.272760e-01
4.209989e-01
4.219637e-01
4.173386e-01
4.126922e-01
3.225962e-01
3.120009e-01
2.974945e-01
4.283209e-01
4.239771e-01
4.175870e-01
4.132768e-01
4.077173e-01
3.231394e-01
3.079333e-01
2.914988e-01
2.964106e-01
4.220769e-01
4.198893e-01
4.158997e-01
4.156798e-01
4.086173e-01
4.071103e-01
4.091920e-01
4.018792e-01
3.938074e-01
3.965076e-01
3.997856e-01
4.018371e-01
3.855383e-01
3.894658e-01
3.931802e-01
3.911340e-01
3.632643e-01
3.546996e-01
3.482593e-01
3.416661e-01
3.338169e-01
3.243496e-01
3.137584e-01
3.056036e-01
2.960190e-01
3.119572e-01
3.172748e-01
3.268726e-01
3.275430e-01
3.435917e-01
3.395996e-01
3.365935e-01
3.533189e-01
3.488929e-01
3.451653e-01
3.525736e-01
3.665446e-01
3.611679e-01
3.566017e-01
3.783505e-01
3.730693e-01
3.676248e-01
3.633437e-01
3.595066e-01
3.838317e-01
3.667838e-01
3.742564e-01
3.771238e-01
4.263553e-01
2.944476e-01
4.284408e-01
4.283306e-01
4.269856e-01
4.244120e-01
4.291652e-01
4.203021e-01
4.185225e-01
4.159444e-01
3.875991e-01
3.942766e-01
4.034399e-01
4.112318e-01
4.168332e-01
4.208285e-01
4.237285e-01
4.266328e-01
4.292877e-01
4.280814e-01
4.259503e-01
4.226396e-01
4.071318e-01
4.290522e-01
4.275115e-01
4.252733e-01
4.219381e-01
4.181262e-01
4.146147e-01
4.111463e-01
4.294350e-01
4.286268e-01
4.264801e-01
4.248399e-01
4.207899e-01
4.166030e-01
4.129059e-01
4.099982e-01
4.041910e-01
3.989165e-01
2.979239e-01
2.900387e-01
3.306278e-01
3.206417e-01
3.091002e-01
2.977958e-01
3.333721e-01
3.161185e-01
3.699169e-01
3.633129e-01
3.533728e-01
3.387682e-01
3.262175e-01
3.144727e-01
3.030711e-01
2.930002e-01
3.540889e-01
3.421077e-01
4.203834e-01
4.149787e-01
4.088798e-01
4.009811e-01
3.913698e-01
3.797799e-01
3.670748e-01
4.292108e-01
4.278890e-01
4.247913e-01
4.201139e-01
4.141271e-01
4.059844e-01
3.972762e-01
3.871049e-01
3.757741e-01
3.663256e-01
3.551834e-01
3.436461e-01
3.313844e-01
3.143229e-01
2.993961e-01
3.819941e-01
3.737991e-01
3.647506e-01
3.541378e-01
3.423548e-01
3.306224e-01
3.188834e-01
3.071846e-01
2.963670e-01
2.918527e-01
4.108069e-01
4.045358e-01
3.957998e-01
3.849977e-01
3.155327e-01
3.103265e-01
2.965931e-01
3.698938e-01
3.560154e-01
3.409557e-01
3.264470e-01
3.112786e-01
2.983045e-01
4.202911e-01
4.149263e-01
4.085736e-01
4.000977e-01
3.903517e-01
3.793555e-01
3.672433e-01
3.533039e-01
3.389667e-01
3.256758e-01
4.290953e-01
4.277589e-01
4.247781e-01
4.207246e-01
4.145995e-01
4.047500e-01
3.954394e-01
3.848608e-01
3.732219e-01
3.622710e-01
4.291319e-01
4.269935e-01
4.239309e-01