VARIABLES = "X" "Y" "Z" "FREF"
ZONE T="instant 050"
Nodes=3151, Elements=6298
ZONETYPE=FETriangle
DATAPACKING=BLOCK
VARLOCATION = ([1-3]=NODAL, [4]=CELLCENTERED)
5.000000e-01
1.692996e-01
1.859591e-01
2.014129e-01
2.160628e-01
2.330050e-01
2.513744e-01
2.710823e-01
2.922703e-01
3.145118e-01
3.369772e-01
3.584368e-01
3.788673e-01
3.984656e-01
4.165404e-01
4.323295e-01
4.455090e-01
4.554852e-01
4.645329e-01
4.738318e-01
4.818741e-01
4.882665e-01
4.929953e-01
4.964336e-01
4.986320e-01
4.997443e-01
1.550000e-01
1.550000e-01
1.550000e-01
1.550000e-01
1.550000e-01
1.550000e-01
1.550000e-01
1.550000e-01
1.550000e-01
1.550000e-01
1.550000e-01
1.550000e-01
3.042804e-01
3.026624e-01
2.988645e-01
2.927559e-01
2.855235e-01
2.801817e-01
2.733605e-01
2.646433e-01
2.560417e-01
2.478598e-01
2.390673e-01
2.291068e-01
2.207598e-01
2.128666e-01
2.052150e-01
1.961537e-01
1.871896e-01
1.802924e-01
1.723268e-01
1.638288e-01
3.050000e-01
4.821903e-01
4.608612e-01
4.421759e-01
4.235969e-01
4.027718e-01
3.820722e-01
3.641023e-01
3.472896e-01
3.311192e-01
3.169547e-01
3.479554e-01
1.914042e-01
1.818031e-01
3.613229e-01
3.392060e-01
1.963934e-01
2.057425e-01
1.883670e-01
2.080964e-01
1.716809e-01
2.084996e-01
1.963297e-01
2.123379e-01
2.238105e-01
4.837146e-01
2.363516e-01
2.529399e-01
2.298400e-01
2.415214e-01
2.939125e-01
3.064471e-01
3.440932e-01
3.232181e-01
3.248681e-01
3.552730e-01
3.685987e-01
3.458346e-01
4.761857e-01
4.646988e-01
3.589102e-01
3.788749e-01
3.710482e-01
3.916047e-01
3.858624e-01
3.982172e-01
3.159546e-01
3.407939e-01
3.283128e-01
3.091711e-01
1.901355e-01
1.766528e-01
1.688287e-01
1.701439e-01
1.698026e-01
1.845302e-01
1.993786e-01
1.705057e-01
1.853070e-01
2.003196e-01
2.162511e-01
1.638241e-01
1.740676e-01
1.870489e-01
2.016162e-01
4.799015e-01
2.168912e-01
2.335709e-01
2.338106e-01
2.518173e-01
2.356955e-01
2.512112e-01
2.707006e-01
1.703764e-01
1.862809e-01
2.020469e-01
2.184463e-01
2.152115e-01
2.137559e-01
2.229475e-01
2.308699e-01
2.491237e-01
2.647329e-01
2.756238e-01
2.903679e-01
1.686988e-01
1.837149e-01
1.998697e-01
2.178060e-01
2.332055e-01
2.477869e-01
2.656492e-01
2.513681e-01
2.633373e-01
2.677342e-01
2.818320e-01
2.970163e-01
3.153680e-01
2.299580e-01
2.430515e-01
2.565548e-01
2.829923e-01
4.734563e-01
4.615187e-01
4.523722e-01
4.414862e-01
2.998450e-01
3.173469e-01
3.369401e-01
2.368507e-01
2.700297e-01
2.852605e-01
3.023197e-01
3.185500e-01
3.368049e-01
3.570368e-01
2.508213e-01
2.654421e-01
2.811171e-01
2.886851e-01
3.054872e-01
3.247935e-01
4.665177e-01
4.528845e-01
4.410590e-01
4.303145e-01
4.183461e-01
3.363378e-01
3.548115e-01
3.757739e-01
3.035838e-01
3.238274e-01
3.489906e-01
3.708731e-01
3.931799e-01
2.565757e-01
2.713378e-01
2.872143e-01
3.048709e-01
3.445293e-01
3.658649e-01
3.874825e-01
4.095758e-01
3.236071e-01
3.428581e-01
3.622900e-01
3.828070e-01
4.033226e-01
4.246341e-01
4.105414e-01
4.248301e-01
2.746465e-01
2.899649e-01
3.066924e-01
3.248577e-01
3.438288e-01
3.622823e-01
3.785869e-01
3.999862e-01
4.179472e-01
4.389141e-01
3.709339e-01
3.793812e-01
4.584200e-01
4.442708e-01
4.317881e-01
4.202365e-01
4.093572e-01
3.988321e-01
3.869262e-01
3.888588e-01
3.995692e-01
4.109334e-01
4.216475e-01
4.347003e-01
4.491831e-01
1.550000e-01
4.996394e-01
4.976170e-01
4.941195e-01
4.892123e-01
4.813752e-01
4.722223e-01
4.605853e-01
4.463101e-01
4.283507e-01
4.095580e-01
3.924324e-01
3.738798e-01
3.540358e-01
3.333502e-01
3.156321e-01
3.008137e-01
2.860908e-01
2.700729e-01
2.533849e-01
2.370353e-01
2.213078e-01
2.062106e-01
1.919499e-01
1.785117e-01
1.660776e-01
5.000000e-01
3.169934e-01
3.314608e-01
3.478366e-01
3.662819e-01
3.844517e-01
4.025069e-01
4.219152e-01
4.436081e-01
4.653703e-01
4.847024e-01
3.050000e-01
1.637223e-01
1.724120e-01
1.826866e-01
1.943901e-01
2.045152e-01
2.143713e-01
2.243116e-01
2.342527e-01
2.430312e-01
2.498064e-01
2.585527e-01
2.665960e-01
2.729832e-01
2.782059e-01
2.831388e-01
2.898022e-01
2.948003e-01
2.976506e-01
3.002116e-01
3.027013e-01
3.044697e-01
1.550000e-01
1.550000e-01
1.550000e-01
1.550000e-01
1.550000e-01
1.550000e-01
1.550000e-01
1.550000e-01
1.550000e-01
1.550000e-01
1.550000e-01
3.478554e-01
3.794123e-01
1.879441e-01
2.159749e-01
2.081481e-01
3.139117e-01
3.203970e-01
3.345790e-01
3.329815e-01
3.549566e-01
3.549774e-01
3.636194e-01
3.439217e-01
4.062366e-01
1.674079e-01
3.905733e-01
3.682010e-01
3.947265e-01
3.524956e-01
3.832770e-01
3.689843e-01
4.017234e-01
3.872140e-01
1.717633e-01
2.148495e-01
1.910822e-01
1.809469e-01
1.704313e-01
2.102097e-01
2.353843e-01
2.023321e-01
2.352104e-01
2.217286e-01
2.454301e-01
2.320313e-01
2.554620e-01
2.679538e-01
1.771351e-01
3.179626e-01
1.706832e-01
1.802144e-01
1.952416e-01
3.083763e-01
3.229239e-01
3.356112e-01
4.785422e-01
4.566426e-01
4.684548e-01
4.756276e-01
4.261411e-01
4.361955e-01
4.454346e-01
4.543661e-01
1.944025e-01
1.834470e-01
1.690175e-01
4.663172e-01
4.232120e-01
4.320063e-01
4.411640e-01
4.589288e-01
4.109575e-01
4.149566e-01
4.392136e-01
4.486579e-01
3.066130e-01
3.145693e-01
3.242222e-01
3.916924e-01
4.078008e-01
4.302335e-01
3.743961e-01
3.944161e-01
4.013560e-01
4.102886e-01
4.171365e-01
4.212098e-01
4.258098e-01
2.929043e-01
3.343907e-01
3.504785e-01
3.729001e-01
3.849420e-01
4.008481e-01
4.159809e-01
2.967822e-01
3.032831e-01
3.123850e-01
3.613494e-01
3.758337e-01
2.090049e-01
1.979790e-01
3.886549e-01
4.001994e-01
2.777258e-01
3.227214e-01
3.341477e-01
3.542277e-01
3.639081e-01
3.742222e-01
3.836024e-01
2.823379e-01
2.882263e-01
2.965320e-01
3.395567e-01
3.500487e-01
3.584587e-01
3.664169e-01
3.044679e-01
2.235033e-01
2.105771e-01
1.966255e-01
1.830275e-01
1.693729e-01
3.113658e-01
3.287611e-01
3.347468e-01
3.416155e-01
3.483512e-01
2.583601e-01
2.637574e-01
2.701538e-01
2.783743e-01
3.117295e-01
3.177834e-01
3.243926e-01
3.298952e-01
2.837899e-01
2.881244e-01
2.942074e-01
3.016761e-01
3.078447e-01
3.112876e-01
1.713406e-01
1.875734e-01
2.068564e-01
2.233218e-01
2.395049e-01
2.559235e-01
2.727493e-01
2.363470e-01
2.403906e-01
2.557347e-01
2.589414e-01
2.628673e-01
2.700668e-01
2.786817e-01
2.887551e-01
2.898107e-01
2.914660e-01
2.389088e-01
2.251254e-01
2.118018e-01
1.989018e-01
1.857292e-01
1.707233e-01
2.432979e-01
2.567945e-01
2.719087e-01
2.166864e-01
2.277473e-01
2.407345e-01
2.551203e-01
5.000000e-01
5.000000e-01
5.000000e-01
5.000000e-01
5.000000e-01
5.000000e-01
5.000000e-01
5.000000e-01
5.000000e-01
5.000000e-01
5.000000e-01
5.000000e-01
5.000000e-01
5.000000e-01
5.000000e-01
5.000000e-01
5.000000e-01
5.000000e-01
5.000000e-01
5.000000e-01
5.000000e-01
5.000000e-01
5.000000e-01
5.000000e-01
5.000000e-01
5.000000e-01
5.000000e-01
5.000000e-01
5.000000e-01
5.000000e-01
5.000000e-01
5.000000e-01
5.000000e-01
1.550000e-01
1.550000e-01
1.550000e-01
1.550000e-01
1.550000e-01
1.550000e-01
1.550000e-01
1.550000e-01
1.550000e-01
1.550000e-01
1.550000e-01
1.550000e-01
1.550000e-01
1.550000e-01
1.550000e-01
1.550000e-01
1.550000e-01
1.550000e-01
1.550000e-01
1.550000e-01
1.550000e-01
1.550000e-01
1.550000e-01
1.550000e-01
1.550000e-01
1.550000e-01
1.550000e-01
1.550000e-01
1.550000e-01
1.550000e-01
1.550000e-01
1.550000e-01
1.550000e-01
3.420439e-01
3.542214e-01
3.495192e-01
3.613007e-01
3.737574e-01
3.993008e-01
3.775107e-01
3.868128e-01
3.018685e-01
3.121252e-01
3.213092e-01
3.220484e-01
3.309173e-01
3.379514e-01
3.434607e-01
3.713852e-01
3.516536e-01
3.412811e-01
3.602605e-01
3.793382e-01
3.321199e-01
3.318936e-01
1.743399e-01
1.666076e-01
3.483977e-01
3.674177e-01
3.866658e-01
3.671341e-01
3.793455e-01
3.919006e-01
3.847235e-01
3.961145e-01
4.011163e-01
4.233677e-01
3.835085e-01
3.976187e-01
3.767114e-01
4.047486e-01
3.866198e-01
3.679276e-01
4.111140e-01
3.936089e-01
3.775187e-01
3.611012e-01
4.093757e-01
4.227035e-01
4.190878e-01
4.055443e-01
3.946304e-01
1.904898e-01
1.805848e-01
1.691962e-01
3.546196e-01
3.665784e-01
3.767518e-01
3.457370e-01
3.571493e-01
3.367491e-01
1.668565e-01
1.759257e-01
1.779072e-01
1.870273e-01
1.896842e-01
1.971915e-01
1.997832e-01
2.027426e-01
2.034229e-01
2.096122e-01
2.133532e-01
2.168083e-01
2.179054e-01
2.237179e-01
2.280488e-01
2.319483e-01
2.269936e-01
2.334370e-01
2.390247e-01
2.436917e-01
2.479517e-01
2.375219e-01
2.436866e-01
2.498633e-01
2.553869e-01
2.601999e-01
2.646893e-01
2.479000e-01
2.063746e-01
1.958989e-01
1.849758e-01
1.739608e-01
1.675153e-01
2.545537e-01
2.609899e-01
2.670716e-01
2.725617e-01
2.773357e-01
2.819041e-01
2.650091e-01
2.723391e-01
2.788925e-01
2.849244e-01
2.904191e-01
2.947956e-01
2.992927e-01
2.749440e-01
2.832923e-01
2.909565e-01
2.972380e-01
3.032495e-01
3.090144e-01
3.119635e-01
3.165162e-01
2.848538e-01
2.936307e-01
3.023562e-01
3.105211e-01
3.154622e-01
3.219193e-01
3.294992e-01
3.271336e-01
3.340895e-01
3.516006e-01
3.978965e-01
3.275237e-01
3.443790e-01
3.633984e-01
2.228627e-01
2.121505e-01
2.012274e-01
1.906487e-01
1.818090e-01
1.725650e-01
3.827604e-01
3.157531e-01
3.338685e-01
3.534653e-01
3.734180e-01
3.908040e-01
4.065231e-01
3.517670e-01
3.629582e-01
3.693650e-01
3.764084e-01
3.825310e-01
3.901923e-01
3.982182e-01
4.064579e-01
4.074477e-01
4.115666e-01
4.161535e-01
4.183340e-01
4.217229e-01
4.257945e-01
3.901344e-01
3.999724e-01
4.082312e-01
4.164637e-01
4.245331e-01
4.308181e-01
4.349813e-01
4.051655e-01
4.094232e-01
4.167740e-01
4.259149e-01
4.333964e-01
4.388711e-01
4.434876e-01
4.207825e-01
4.352894e-01
4.332233e-01
4.443689e-01
4.473017e-01
4.514849e-01
4.557150e-01
4.591532e-01
4.339417e-01
4.501360e-01
4.599702e-01
4.659266e-01
4.465053e-01
4.605795e-01
4.668600e-01
4.719415e-01
4.679932e-01
4.781441e-01
2.404779e-01
2.293006e-01
2.180943e-01
2.072359e-01
1.971973e-01
1.871750e-01
1.756164e-01
1.683256e-01
4.749309e-01
4.838785e-01
4.776588e-01
4.849626e-01
4.927059e-01
4.979257e-01
4.952979e-01
4.918575e-01
4.913832e-01
4.877310e-01
4.859982e-01
4.867672e-01
4.793150e-01
4.802419e-01
4.813921e-01
4.827776e-01
4.714376e-01
4.722855e-01
4.735923e-01
4.751989e-01
4.770173e-01
4.628049e-01
4.642765e-01
4.661309e-01
4.682575e-01
4.705416e-01
4.607098e-01
4.634690e-01
4.515473e-01
4.533758e-01
4.555065e-01
4.579949e-01
4.388391e-01
4.408881e-01
4.432474e-01
4.461227e-01
4.494091e-01
4.527535e-01
4.558603e-01
4.252552e-01
4.269822e-01
4.292997e-01
4.324659e-01
4.364381e-01
4.408040e-01
4.445139e-01
4.474605e-01
3.960463e-01
3.973131e-01
4.119339e-01
4.137207e-01
4.167095e-01
4.215630e-01
4.269503e-01
4.332196e-01
4.344117e-01
4.385225e-01
3.961132e-01
4.099741e-01
3.861760e-01
1.972066e-01
2.199520e-01
2.069489e-01
2.249443e-01
2.181419e-01
2.428903e-01
2.377660e-01
2.304032e-01
2.667273e-01
2.578618e-01
2.592359e-01
2.474000e-01
2.357260e-01
2.244108e-01
2.136222e-01
2.030827e-01
1.924066e-01
1.830571e-01
1.732821e-01
2.503426e-01
2.427495e-01
2.888873e-01
2.796136e-01
2.709505e-01
2.628538e-01
2.550670e-01
3.017706e-01
2.922998e-01
2.835574e-01
2.752956e-01
2.673577e-01
3.239257e-01
3.138758e-01
3.046242e-01
2.959743e-01
2.877079e-01
2.796598e-01
3.453433e-01
3.352516e-01
3.256712e-01
3.167805e-01
3.083587e-01
3.001425e-01
2.919620e-01
3.651097e-01
3.562417e-01
3.463163e-01
3.373309e-01
3.289471e-01
3.208402e-01
3.125973e-01
3.041874e-01
3.814357e-01
3.782019e-01
3.661152e-01
3.572834e-01
3.489918e-01
3.413929e-01
3.334754e-01
3.248851e-01
3.161881e-01
4.310387e-01
4.190018e-01
4.040462e-01
3.871539e-01
3.682344e-01
3.481465e-01
3.278082e-01
4.150327e-01
3.989609e-01
3.806489e-01
3.590604e-01
3.387909e-01
1.677514e-01
1.658951e-01
1.683917e-01
1.812276e-01
1.768491e-01
1.844628e-01
1.954520e-01
1.669297e-01
1.781932e-01
1.890918e-01
1.990539e-01
2.102083e-01
1.675766e-01
1.795460e-01
1.910924e-01
2.025918e-01
2.138505e-01
2.255978e-01
2.790621e-01
2.663726e-01
2.541361e-01
2.423543e-01
2.310076e-01
2.199819e-01
2.091471e-01
1.988148e-01
1.883646e-01
1.767274e-01
1.683210e-01
1.646046e-01
1.705544e-01
1.812641e-01
1.929177e-01
2.049325e-01
2.170070e-01
2.292835e-01
2.417153e-01
1.638458e-01
1.666803e-01
1.763531e-01
1.846291e-01
1.952349e-01
2.071239e-01
2.195128e-01
2.323177e-01
2.453988e-01
2.586312e-01
1.699160e-01
1.793881e-01
1.889474e-01
1.984441e-01
2.096278e-01
2.219098e-01
2.348822e-01
2.482730e-01
2.620930e-01
2.766165e-01
2.924081e-01
1.651283e-01
1.744585e-01
1.829933e-01
1.926155e-01
2.023436e-01
2.124690e-01
2.244369e-01
2.373362e-01
2.508052e-01
2.647131e-01
2.789022e-01
2.934497e-01
3.067130e-01
1.658271e-01
1.763182e-01
1.854855e-01
1.962511e-01
2.065409e-01
2.164591e-01
2.266779e-01
2.398386e-01
2.532112e-01
2.672009e-01
2.814855e-01
2.958501e-01
3.108395e-01
3.227756e-01
1.611284e-01
1.675753e-01
1.774359e-01
1.883587e-01
1.970325e-01
2.106701e-01
2.214045e-01
2.314391e-01
2.405073e-01
2.563289e-01
2.693186e-01
2.840244e-01
2.985258e-01
3.125693e-01
3.302535e-01
3.390290e-01
2.997640e-01
2.860283e-01
2.731759e-01
2.610101e-01
2.492642e-01
2.378094e-01
2.265766e-01
2.156084e-01
2.046883e-01
1.935178e-01
1.829941e-01
1.704735e-01
4.990290e-01
4.996614e-01
4.967203e-01
4.984397e-01
4.995720e-01
4.931007e-01
4.959751e-01
4.980968e-01
4.994892e-01
4.837877e-01
4.883894e-01
4.922430e-01
4.953937e-01
4.978178e-01
4.994148e-01
4.658100e-01
4.760919e-01
4.822880e-01
4.872177e-01
4.913775e-01
4.948355e-01
4.975345e-01
4.993330e-01
4.692529e-01
4.752713e-01
4.809218e-01
4.860049e-01
4.904506e-01
4.942088e-01
4.971855e-01
4.992178e-01
4.543355e-01
4.606519e-01
4.669649e-01
4.733346e-01
4.792555e-01
4.846198e-01
4.893607e-01
4.934062e-01
4.966584e-01
4.989864e-01
4.995751e-01
4.410632e-01
4.496995e-01
4.572371e-01
4.643765e-01
4.711163e-01
4.773415e-01
4.829898e-01
4.879978e-01
4.922737e-01
4.956653e-01
4.979415e-01
4.994271e-01
4.161970e-01
4.274400e-01
4.373425e-01
4.460567e-01
4.540831e-01
4.616163e-01
4.686498e-01
4.751386e-01
4.810353e-01
4.862814e-01
4.907982e-01
4.944878e-01
4.973481e-01
4.992783e-01
3.850599e-01
4.008859e-01
4.133793e-01
4.241891e-01
4.337233e-01
4.425429e-01
3.210039e-01
3.060514e-01
2.925079e-01
2.801822e-01
2.682391e-01
2.564842e-01
2.448770e-01
2.334195e-01
2.220403e-01
2.106585e-01
1.993386e-01
1.875137e-01
1.756863e-01
4.508339e-01
4.586153e-01
4.658712e-01
4.725732e-01
4.786779e-01
4.841672e-01
4.890341e-01
4.932446e-01
4.967710e-01
4.991001e-01
1.665331e-01
1.787223e-01
1.915340e-01
2.053511e-01
2.200383e-01
2.356962e-01
2.521398e-01
2.692451e-01
2.867959e-01
3.046123e-01
3.226368e-01
3.407863e-01
3.588675e-01
3.770162e-01
3.944544e-01
4.107895e-01
4.258177e-01
4.402577e-01
4.549053e-01
4.648139e-01
4.739954e-01
4.839933e-01
4.910042e-01
4.962763e-01
3.705301e-01
3.876144e-01
3.992957e-01
4.107361e-01
4.205126e-01
4.298879e-01
4.388678e-01
4.473431e-01
4.552770e-01
4.627036e-01
4.695595e-01
4.757827e-01
4.815207e-01
4.868233e-01
4.914606e-01
4.963776e-01
4.985926e-01
1.672315e-01
1.800723e-01
1.935652e-01
2.080063e-01
2.232998e-01
2.395109e-01
2.564722e-01
2.740587e-01
2.920872e-01
3.104079e-01
3.288703e-01
3.472962e-01
3.655084e-01
3.832645e-01
4.002458e-01
4.162727e-01
4.312742e-01
4.452718e-01
4.576968e-01
4.685230e-01
4.781343e-01
4.865261e-01
4.931278e-01
4.978751e-01
1.679685e-01
1.814947e-01
1.956650e-01
2.107522e-01
2.266900e-01
2.435076e-01
2.610397e-01
2.791491e-01
2.976499e-01
3.163634e-01
3.350951e-01
3.536395e-01
3.717796e-01
3.892891e-01
4.059677e-01
4.216657e-01
4.362566e-01
4.495795e-01
4.614896e-01
4.720141e-01
4.811324e-01
4.887398e-01
4.946264e-01
4.985404e-01
1.687368e-01
1.829508e-01
1.978447e-01
2.136507e-01
2.302952e-01
2.477639e-01
2.658844e-01
2.845004e-01
3.034136e-01
3.424057e-01
3.261711e-01
3.114732e-01
2.995682e-01
2.877454e-01
2.758763e-01
2.640055e-01
2.521790e-01
2.404075e-01
2.286507e-01
2.169249e-01
2.050002e-01
1.928963e-01
1.799371e-01
1.710927e-01
3.224246e-01
3.413228e-01
3.598928e-01
3.779177e-01
3.951938e-01
4.115481e-01
4.268347e-01
4.409205e-01
4.536936e-01
4.650896e-01
4.750677e-01
4.835559e-01
4.904550e-01
4.956227e-01
4.988757e-01
1.694251e-01
1.844523e-01
2.002030e-01
2.168260e-01
2.342308e-01
2.523646e-01
2.710522e-01
2.901248e-01
3.093788e-01
3.286082e-01
3.476031e-01
3.661461e-01
3.840174e-01
4.010177e-01
4.169900e-01
4.318062e-01
4.453574e-01
4.575640e-01
4.683730e-01
4.777254e-01
4.855516e-01
4.917780e-01
4.963168e-01
4.990780e-01
1.702631e-01
1.862680e-01
2.029808e-01
2.204724e-01
2.386434e-01
2.574078e-01
2.765991e-01
2.960495e-01
3.155607e-01
3.349427e-01
3.539935e-01
3.724742e-01
3.901459e-01
4.068023e-01
4.223221e-01
4.366074e-01
4.495806e-01
4.611795e-01
4.713578e-01
4.800524e-01
4.872224e-01
4.928345e-01
4.968422e-01
4.992225e-01
1.715383e-01
1.886656e-01
2.064290e-01
2.247955e-01
2.436783e-01
2.629975e-01
2.825687e-01
3.022699e-01
3.219346e-01
3.414592e-01
3.605721e-01
3.789559e-01
3.963824e-01
4.125945e-01
4.275638e-01
4.412291e-01
4.536066e-01
4.645819e-01
4.740984e-01
4.821017e-01
4.886458e-01
4.937271e-01
4.972872e-01
4.993464e-01
1.732302e-01
1.919037e-01
2.108780e-01
2.299256e-01
2.495039e-01
2.693166e-01
2.889367e-01
3.086029e-01
3.283597e-01
3.483285e-01
3.674485e-01
3.856419e-01
4.028824e-01
4.184711e-01
4.326656e-01
4.455371e-01
4.575504e-01
4.678997e-01
4.766310e-01
4.838422e-01
4.898662e-01
4.945579e-01
3.634899e-01
3.470836e-01
3.286042e-01
3.188859e-01
3.076116e-01
2.958278e-01
2.838321e-01
2.717547e-01
2.596680e-01
2.476037e-01
2.355356e-01
2.234266e-01
2.112596e-01
1.991739e-01
1.885028e-01
1.765933e-01
4.977363e-01
4.994767e-01
1.770157e-01
1.978850e-01
2.158594e-01
2.358157e-01
2.566294e-01
2.770203e-01
2.954084e-01
3.124910e-01
3.356048e-01
3.560343e-01
3.745886e-01
3.923009e-01
4.104644e-01
4.248558e-01
4.366604e-01
4.492766e-01
4.621161e-01
4.715524e-01
4.784700e-01
4.851539e-01
4.908906e-01
4.955270e-01
4.983443e-01
4.995765e-01
4.995483e-01
4.993222e-01
4.980117e-01
4.995763e-01
4.988173e-01
4.972569e-01
4.952408e-01
4.993223e-01
4.979994e-01
4.962322e-01
4.938803e-01
4.911562e-01
4.987913e-01
4.971704e-01
4.949879e-01
4.923038e-01
4.891521e-01
4.856622e-01
4.993759e-01
4.975960e-01
4.960404e-01
4.936043e-01
4.905488e-01
4.869910e-01
4.830171e-01
4.786808e-01
4.703115e-01
4.991448e-01
4.973139e-01
4.948348e-01
4.920747e-01
4.886676e-01
4.846972e-01
4.802653e-01
4.754633e-01
4.608461e-01
4.995576e-01
4.986818e-01
4.966967e-01
4.939070e-01
4.905534e-01
4.867201e-01
4.823214e-01
4.774162e-01
4.721138e-01
4.665472e-01
4.503462e-01
4.993123e-01
4.979019e-01
4.958209e-01
4.928261e-01
4.890979e-01
4.847836e-01
4.799264e-01
4.745343e-01
4.686774e-01
4.625227e-01
4.563186e-01
4.988519e-01
4.971859e-01
4.947775e-01
4.915792e-01
4.875691e-01
4.828646e-01
4.775572e-01
4.716868e-01
4.652882e-01
4.584179e-01
4.514259e-01
4.447200e-01
4.381764e-01
4.236793e-01
4.994778e-01
4.978938e-01
4.963024e-01
4.937085e-01
4.902445e-01
4.859602e-01
4.809194e-01
4.752156e-01
4.689044e-01
4.620179e-01
4.545933e-01
4.464160e-01
4.387036e-01
4.318575e-01
3.692672e-01
3.835848e-01
4.993007e-01
4.978642e-01
4.955365e-01
4.926662e-01
4.889260e-01
4.843325e-01
4.789528e-01
4.728782e-01
4.661850e-01
4.588655e-01
4.509651e-01
4.426729e-01
4.314386e-01
4.246556e-01
4.188008e-01
4.039001e-01
1.550000e-01
1.550000e-01
1.550000e-01
1.550000e-01
1.550000e-01
1.550000e-01
1.550000e-01
1.550000e-01
1.550000e-01
1.550000e-01
1.550000e-01
1.550000e-01
1.550000e-01
1.550000e-01
1.550000e-01
1.550000e-01
1.550000e-01
1.550000e-01
1.550000e-01
1.550000e-01
1.550000e-01
1.550000e-01
1.550000e-01
1.550000e-01
1.550000e-01
1.550000e-01
1.550000e-01
1.550000e-01
1.550000e-01
1.550000e-01
1.550000e-01
1.550000e-01
1.550000e-01
1.550000e-01
1.550000e-01
1.550000e-01
1.550000e-01
1.550000e-01
1.550000e-01
1.550000e-01
1.550000e-01
1.550000e-01
1.550000e-01
1.550000e-01
1.550000e-01
1.550000e-01
1.550000e-01
1.550000e-01
1.550000e-01
1.550000e-01
1.550000e-01
1.550000e-01
1.550000e-01
1.550000e-01
1.550000e-01
1.550000e-01
1.550000e-01
1.550000e-01
1.550000e-01
1.550000e-01
1.550000e-01
1.550000e-01
1.550000e-01
1.550000e-01
1.550000e-01
1.550000e-01
1.550000e-01
1.550000e-01
1.550000e-01
1.550000e-01
1.550000e-01
1.550000e-01
1.550000e-01
1.550000e-01
1.550000e-01
1.550000e-01
1.550000e-01
1.550000e-01
1.550000e-01
1.550000e-01
1.550000e-01
1.550000e-01
1.550000e-01
1.550000e-01
1.550000e-01
1.550000e-01
1.550000e-01
1.550000e-01
1.550000e-01
1.550000e-01
1.550000e-01
1.550000e-01
1.550000e-01
1.550000e-01
1.550000e-01
1.550000e-01
1.550000e-01
1.550000e-01
1.550000e-01
1.550000e-01
1.550000e-01
1.550000e-01
1.550000e-01
1.550000e-01
1.550000e-01
1.550000e-01
1.550000e-01
1.550000e-01
1.550000e-01
1.550000e-01
1.550000e-01
1.550000e-01
1.550000e-01
1.550000e-01
1.550000e-01
1.550000e-01
1.550000e-01
1.550000e-01
1.550000e-01
1.550000e-01
1.550000e-01
1.550000e-01
1.550000e-01
1.550000e-01
1.550000e-01
1.550000e-01
1.550000e-01
1.550000e-01
1.550000e-01
1.550000e-01
1.550000e-01
1.550000e-01
1.550000e-01
1.550000e-01
1.550000e-01
1.550000e-01
1.550000e-01
1.550000e-01
1.550000e-01
1.550000e-01
1.550000e-01
1.550000e-01
1.550000e-01
1.550000e-01
1.550000e-01
1.550000e-01
1.550000e-01
1.550000e-01
1.550000e-01
1.550000e-01
1.550000e-01
1.550000e-01
1.550000e-01
1.550000e-01
1.550000e-01
1.550000e-01
1.550000e-01
1.550000e-01
1.550000e-01
1.550000e-01
1.550000e-01
1.550000e-01
1.550000e-01
1.550000e-01
1.550000e-01
1.550000e-01
1.550000e-01
1.550000e-01
1.550000e-01
1.550000e-01
1.550000e-01
1.550000e-01
1.550000e-01
1.550000e-01
1.550000e-01
1.550000e-01
1.550000e-01
1.550000e-01
1.550000e-01
1.550000e-01
1.550000e-01
1.550000e-01
1.550000e-01
1.550000e-01
1.550000e-01
1.550000e-01
1.550000e-01
1.550000e-01
1.550000e-01
1.550000e-01
1.550000e-01
1.550000e-01
1.550000e-01
1.550000e-01
1.550000e-01
1.550000e-01
1.550000e-01
1.550000e-01
1.550000e-01
1.550000e-01
1.550000e-01
1.550000e-01
1.550000e-01
1.550000e-01
1.550000e-01
1.550000e-01
1.550000e-01
1.550000e-01
1.550000e-01
1.550000e-01
1.550000e-01
1.550000e-01
1.550000e-01
1.550000e-01
1.550000e-01
1.550000e-01
1.550000e-01
1.550000e-01
1.550000e-01
1.550000e-01
1.550000e-01
1.550000e-01
1.550000e-01
1.550000e-01
1.550000e-01
1.550000e-01
1.550000e-01
1.550000e-01
1.550000e-01
1.550000e-01
1.550000e-01
1.550000e-01
1.550000e-01
1.550000e-01
1.550000e-01
1.550000e-01
1.550000e-01
1.550000e-01
1.550000e-01
1.550000e-01
1.550000e-01
1.550000e-01
1.550000e-01
1.550000e-01
1.550000e-01
1.550000e-01
1.550000e-01
1.550000e-01
1.550000e-01
1.550000e-01
1.550000e-01
1.550000e-01
1.550000e-01
1.550000e-01
1.550000e-01
1.550000e-01
1.550000e-01
1.550000e-01
1.550000e-01
1.550000e-01
1.550000e-01
1.550000e-01
1.550000e-01
1.550000e-01
1.550000e-01
1.550000e-01
1.550000e-01
1.550000e-01
1.550000e-01
1.550000e-01
1.550000e-01
1.550000e-01
1.550000e-01
1.550000e-01
1.550000e-01
1.550000e-01
1.550000e-01
1.550000e-01
1.550000e-01
1.550000e-01
1.550000e-01
1.550000e-01
1.550000e-01
1.550000e-01
1.550000e-01
1.550000e-01
1.550000e-01
1.550000e-01
1.550000e-01
1.550000e-01
1.550000e-01
1.550000e-01
1.550000e-01
1.550000e-01
1.550000e-01
1.550000e-01
1.550000e-01
1.550000e-01
1.550000e-01
1.550000e-01
1.550000e-01
1.550000e-01
1.550000e-01
1.550000e-01
1.550000e-01
1.550000e-01
1.550000e-01
1.550000e-01
1.550000e-01
1.550000e-01
1.550000e-01
1.550000e-01
1.550000e-01
1.550000e-01
1.550000e-01
1.550000e-01
1.550000e-01
1.550000e-01
1.550000e-01
1.550000e-01
1.550000e-01
1.550000e-01
1.550000e-01
1.550000e-01
1.550000e-01
1.550000e-01
1.550000e-01
1.550000e-01
1.550000e-01
1.550000e-01
1.550000e-01
1.550000e-01
1.550000e-01
1.550000e-01
1.550000e-01
1.550000e-01
1.550000e-01
1.550000e-01
1.550000e-01
1.550000e-01
1.550000e-01
1.550000e-01
1.550000e-01
1.550000e-01
1.550000e-01
1.550000e-01
1.550000e-01
1.550000e-01
1.550000e-01
1.550000e-01
1.550000e-01
1.550000e-01
1.550000e-01
1.550000e-01
1.550000e-01
1.550000e-01
1.550000e-01
1.550000e-01
1.550000e-01
1.550000e-01
1.550000e-01
1.550000e-01
1.550000e-01
1.550000e-01
1.550000e-01
1.550000e-01
1.550000e-01
1.550000e-01
1.550000e-01
1.550000e-01
3.050000e-01
3.050000e-01
3.050000e-01
3.050000e-01
3.050000e-01
3.050000e-01
3.050000e-01
3.050000e-01
3.050000e-01
3.050000e-01
3.050000e-01
3.050000e-01
3.050000e-01
3.050000e-01
3.050000e-01
3.050000e-01
3.050000e-01
3.050000e-01
3.050000e-01
3.050000e-01
3.050000e-01
3.050000e-01
3.050000e-01
3.050000e-01
3.050000e-01
3.050000e-01
3.050000e-01
3.050000e-01
3.050000e-01
3.050000e-01
3.050000e-01
3.050000e-01
3.050000e-01
2.568380e-01
2.498683e-01
2.678660e-01
2.543925e-01
2.597930e-01
2.461915e-01
2.454951e-01
2.397945e-01
2.354919e-01
2.558225e-01
2.488838e-01
2.428786e-01
2.536086e-01
2.412860e-01
2.503175e-01
1.734701e-01
3.031538e-01
3.002040e-01
2.935732e-01
2.966069e-01
2.944147e-01
2.886055e-01
2.947607e-01
2.909892e-01
2.870899e-01
2.877012e-01
2.830363e-01
2.781726e-01
2.833386e-01
2.784470e-01
2.735933e-01
2.680647e-01
3.008229e-01
2.783745e-01
2.730767e-01
2.676548e-01
2.643052e-01
2.570650e-01
2.535058e-01
2.586290e-01
2.465788e-01
2.738119e-01
2.636263e-01
3.037691e-01
2.518549e-01
2.379043e-01
2.448327e-01
2.389873e-01
2.329927e-01
2.282327e-01
2.258442e-01
2.304045e-01
2.245662e-01
2.199124e-01
2.163617e-01
2.213926e-01
2.143228e-01
2.106865e-01
2.069747e-01
2.036085e-01
2.007709e-01
1.975081e-01
1.904980e-01
1.878588e-01
1.770948e-01
2.142280e-01
1.992285e-01
1.872344e-01
1.775088e-01
1.665645e-01
2.933670e-01
2.884317e-01
3.042334e-01
3.015575e-01
3.030498e-01
2.973714e-01
2.994056e-01
2.945814e-01
2.890274e-01
2.966123e-01
3.001896e-01
3.033156e-01
1.927155e-01
1.812506e-01
1.675894e-01
1.920362e-01
1.778026e-01
1.639770e-01
2.929811e-01
2.880437e-01
3.040991e-01
3.012772e-01
3.028397e-01
2.970466e-01
2.990805e-01
2.941606e-01
2.885380e-01
1.920610e-01
1.809135e-01
1.677125e-01
1.926572e-01
1.782154e-01
1.641078e-01
3.040053e-01
3.010304e-01
3.025625e-01
2.966929e-01
2.986343e-01
2.937631e-01
2.884606e-01
1.932647e-01
1.815772e-01
1.676731e-01
3.037656e-01
2.999604e-01
2.962149e-01
2.933993e-01
2.900500e-01
2.885730e-01
2.801256e-01
1.925335e-01
1.791589e-01
1.648993e-01
2.172660e-01
2.041710e-01
1.906511e-01
1.754469e-01
1.639309e-01
2.937803e-01
2.890257e-01
3.041447e-01
3.013819e-01
3.028935e-01
2.971011e-01
2.992068e-01
2.941764e-01
2.885936e-01
1.949213e-01
1.830466e-01
1.688580e-01
1.925768e-01
1.786978e-01
2.819527e-01
2.894799e-01
2.946174e-01
2.986774e-01
1.644602e-01
3.040513e-01
3.013494e-01
2.975043e-01
1.946166e-01
1.828764e-01
1.679360e-01
2.911730e-01
2.858147e-01
3.037479e-01
3.005180e-01
3.023162e-01
2.959612e-01
2.978963e-01
2.899943e-01
2.920321e-01
2.825736e-01
2.856782e-01
2.128786e-01
2.006648e-01
1.884546e-01
1.771672e-01
1.654865e-01
1.889957e-01
1.757470e-01
1.632396e-01
3.037166e-01
3.002294e-01
3.018048e-01
2.953394e-01
2.975472e-01
2.924998e-01
2.869026e-01
2.701967e-01
1.904757e-01
1.801076e-01
1.667765e-01
3.043152e-01
3.007854e-01
2.960209e-01
2.926212e-01
2.891384e-01
2.875137e-01
2.784987e-01
1.916863e-01
1.779629e-01
1.643516e-01
2.154279e-01
2.026893e-01
1.896084e-01
1.748080e-01
1.636036e-01
2.922882e-01
2.871848e-01
3.039021e-01
3.008502e-01
3.025849e-01
2.964134e-01
2.984972e-01
2.930304e-01
2.870949e-01
1.934985e-01
1.819591e-01
1.682642e-01
1.905814e-01
1.774162e-01
1.638940e-01
2.926818e-01
2.876995e-01
3.039173e-01
2.608588e-01
3.007986e-01
3.025849e-01
2.962600e-01
2.986241e-01
2.935502e-01
2.877886e-01
1.918223e-01
1.803711e-01
1.670151e-01
1.896027e-01
1.767048e-01
1.635859e-01
3.038734e-01
3.006633e-01
3.022085e-01
2.961826e-01
2.977670e-01
2.919259e-01
2.860212e-01
1.905299e-01
1.799458e-01
1.666081e-01
3.036759e-01
3.012224e-01
2.979582e-01
2.911077e-01
2.918923e-01
2.858166e-01
2.816101e-01
1.904329e-01
1.769684e-01
1.637751e-01
2.190566e-01
2.063325e-01
1.899728e-01
1.774576e-01
1.661704e-01
3.037943e-01
3.001954e-01
3.011758e-01
2.795046e-01
2.868694e-01
2.924996e-01
2.967528e-01
2.994791e-01
3.028108e-01
2.951002e-01
2.966230e-01
2.909513e-01
2.850402e-01
1.902968e-01
1.794855e-01
1.669378e-01
3.038631e-01
2.991880e-01
2.917204e-01
2.863114e-01
2.793861e-01
1.907990e-01
1.773856e-01
1.638402e-01
1.665162e-01
2.969946e-01
2.943258e-01
2.896166e-01
2.892252e-01
2.814446e-01
2.798957e-01
2.823510e-01
2.735800e-01
2.640816e-01
2.678581e-01
2.722375e-01
2.747929e-01
2.551943e-01
2.606018e-01
2.653423e-01
2.641774e-01
2.357585e-01
2.257646e-01
2.181684e-01
2.104754e-01
2.019505e-01
1.920992e-01
1.822878e-01
1.757089e-01
1.669683e-01
1.814556e-01
1.863518e-01
1.951865e-01
1.960488e-01
2.105783e-01
2.072024e-01
2.044470e-01
2.205945e-01
2.166617e-01
2.134245e-01
2.216780e-01
2.339406e-01
2.291614e-01
2.250873e-01
2.462833e-01
2.417902e-01
2.367218e-01
2.328250e-01
2.297563e-01
2.572400e-01
2.382136e-01
2.467603e-01
2.507745e-01
3.015901e-01
1.659243e-01
3.035117e-01
3.032255e-01
3.016313e-01
2.990263e-01
3.042925e-01
2.933377e-01
2.906263e-01
2.872219e-01
2.619263e-01
2.686684e-01
2.770879e-01
2.845356e-01
2.905868e-01
2.952838e-01
2.989540e-01
3.022632e-01
3.043233e-01
3.027555e-01
3.000790e-01
2.961128e-01
2.744029e-01
3.040276e-01
3.019429e-01
2.990011e-01
2.947303e-01
2.898062e-01
2.851428e-01
2.804042e-01
3.045506e-01
3.034291e-01
3.004498e-01
2.982722e-01
2.928265e-01
2.874508e-01
2.826157e-01
2.787128e-01
2.708476e-01
2.639161e-01
1.711509e-01
1.635862e-01
1.936970e-01
1.858272e-01
1.755613e-01
1.669484e-01
1.961787e-01
1.834886e-01
2.289569e-01
2.229513e-01
2.133881e-01
2.007286e-01
1.901428e-01
1.805835e-01
1.715136e-01
1.644395e-01
2.137639e-01
2.039132e-01
2.911990e-01
2.837312e-01
2.756323e-01
2.655791e-01
2.540256e-01
2.411675e-01
2.277768e-01
3.041683e-01
3.022010e-01
2.977460e-01
2.910755e-01
2.827493e-01
2.721687e-01
2.612464e-01
2.494379e-01
2.373616e-01
2.270947e-01
2.154364e-01
2.053520e-01
1.940943e-01
1.804878e-01
1.687893e-01
2.420337e-01
2.342133e-01
2.248473e-01
2.140276e-01
2.036423e-01
1.939632e-01
1.847406e-01
1.761678e-01
1.674041e-01
1.639863e-01
2.780763e-01
2.698637e-01
2.590850e-01
2.464910e-01
1.835338e-01
1.781596e-01
1.676452e-01
2.307159e-01
2.172834e-01
2.038895e-01
1.901279e-01
1.770864e-01
1.663777e-01
2.908045e-01
2.832644e-01
2.748172e-01
2.641587e-01
2.525027e-01
2.401344e-01
2.273226e-01
2.139987e-01
2.019734e-01
1.892169e-01
3.039263e-01
3.018893e-01
2.974479e-01
2.914728e-01
2.828204e-01
2.701506e-01
2.586008e-01
2.463788e-01
2.339358e-01
2.224990e-01
3.039347e-01
3.007163e-01
2.962545e-01
2.915004e-01
2.847755e-01