VARIABLES = "X" "Y" "Z" "FREF"
ZONE T="instant 048"
Nodes=3151, Elements=6298
ZONETYPE=FETriangle
DATAPACKING=BLOCK
VARLOCATION = ([1-3]=NODAL, [4]=CELLCENTERED)
5.000000e-01
1.636415e-01
1.797073e-01
1.948957e-01
2.095555e-01
2.266450e-01
2.453431e-01
2.655114e-01
2.872387e-01
3.100624e-01
3.331524e-01
3.552500e-01
3.762762e-01
3.964390e-01
4.150064e-01
4.311831e-01
4.446515e-01
4.548445e-01
4.640560e-01
4.734802e-01
4.816252e-01
4.881053e-01
4.929061e-01
4.963935e-01
4.986175e-01
4.997408e-01
1.498000e-01
1.498000e-01
1.498000e-01
1.498000e-01
1.498000e-01
1.498000e-01
1.498000e-01
1.498000e-01
1.498000e-01
1.498000e-01
1.498000e-01
1.498000e-01
2.991043e-01
2.975182e-01
2.937864e-01
2.877885e-01
2.806663e-01
2.753485e-01
2.685164e-01
2.597846e-01
2.511533e-01
2.429435e-01
2.340853e-01
2.240969e-01
2.156546e-01
2.076756e-01
1.999405e-01
1.907856e-01
1.817428e-01
1.748339e-01
1.669046e-01
1.584878e-01
2.998000e-01
4.815921e-01
4.592653e-01
4.398242e-01
4.204627e-01
3.986174e-01
3.771041e-01
3.587061e-01
3.416936e-01
3.256061e-01
3.115823e-01
3.424972e-01
1.845599e-01
1.752015e-01
3.558150e-01
3.338076e-01
1.898954e-01
1.989032e-01
1.818980e-01
2.011249e-01
1.655700e-01
2.013824e-01
1.893470e-01
2.051942e-01
2.166926e-01
4.831957e-01
2.294128e-01
2.463942e-01
2.227915e-01
2.346800e-01
2.888504e-01
3.010156e-01
3.383048e-01
3.178615e-01
3.193612e-01
3.496765e-01
3.634815e-01
3.406135e-01
4.754202e-01
4.634899e-01
3.537897e-01
3.742435e-01
3.665638e-01
3.875335e-01
3.823923e-01
3.947416e-01
3.104972e-01
3.350554e-01
3.226380e-01
3.039006e-01
1.842913e-01
1.707918e-01
1.632056e-01
1.643921e-01
1.639940e-01
1.783664e-01
1.929372e-01
1.645493e-01
1.789678e-01
1.937621e-01
2.097485e-01
1.581825e-01
1.679770e-01
1.805577e-01
1.948698e-01
4.793026e-01
2.102207e-01
2.271745e-01
2.272108e-01
2.457130e-01
2.289481e-01
2.448644e-01
2.649817e-01
1.645401e-01
1.798330e-01
1.952154e-01
2.115408e-01
2.095502e-01
2.072265e-01
2.161137e-01
2.239040e-01
2.424495e-01
2.584424e-01
2.696667e-01
2.850458e-01
1.626312e-01
1.771513e-01
1.929341e-01
2.107516e-01
2.263470e-01
2.412427e-01
2.595833e-01
2.446802e-01
2.569519e-01
2.614979e-01
2.759961e-01
2.916939e-01
3.107324e-01
2.237817e-01
2.365784e-01
2.500888e-01
2.771902e-01
4.726623e-01
4.602350e-01
4.505628e-01
4.391467e-01
2.945649e-01
3.126673e-01
3.329797e-01
2.314849e-01
2.637347e-01
2.793754e-01
2.970323e-01
3.138244e-01
3.327123e-01
3.536719e-01
2.450554e-01
2.594427e-01
2.751906e-01
2.828224e-01
3.000886e-01
3.201219e-01
4.655445e-01
4.512715e-01
4.388673e-01
4.274943e-01
4.148343e-01
3.321486e-01
3.512339e-01
3.729399e-01
2.980749e-01
3.188488e-01
3.451148e-01
3.677276e-01
3.908119e-01
2.513579e-01
2.657769e-01
2.814780e-01
2.992702e-01
3.402117e-01
3.623154e-01
3.847162e-01
4.076115e-01
3.184118e-01
3.382577e-01
3.583717e-01
3.796586e-01
4.009534e-01
4.230505e-01
4.078326e-01
4.229149e-01
2.694920e-01
2.844796e-01
3.011231e-01
3.195271e-01
3.390389e-01
3.581917e-01
3.751126e-01
3.973002e-01
4.160119e-01
4.377050e-01
3.656674e-01
3.743427e-01
4.573221e-01
4.424500e-01
4.292849e-01
4.171268e-01
4.056041e-01
3.944874e-01
3.821339e-01
3.843387e-01
3.956305e-01
4.075714e-01
4.189806e-01
4.327823e-01
4.480038e-01
1.498000e-01
4.996348e-01
4.976189e-01
4.941190e-01
4.891772e-01
4.812995e-01
4.720736e-01
4.603557e-01
4.460056e-01
4.279008e-01
4.088637e-01
3.914707e-01
3.725677e-01
3.522172e-01
3.310170e-01
3.128551e-01
2.976094e-01
2.823883e-01
2.657349e-01
2.483920e-01
2.314723e-01
2.153316e-01
2.000398e-01
1.858134e-01
1.726334e-01
1.605649e-01
5.000000e-01
3.117216e-01
3.261077e-01
3.425442e-01
3.612926e-01
3.799847e-01
3.986928e-01
4.187661e-01
4.413075e-01
4.641159e-01
4.842386e-01
2.998000e-01
1.582845e-01
1.667908e-01
1.768859e-01
1.884675e-01
1.986278e-01
2.085372e-01
2.186185e-01
2.286813e-01
2.375712e-01
2.444022e-01
2.531974e-01
2.613318e-01
2.677816e-01
2.730477e-01
2.779738e-01
2.846433e-01
2.896580e-01
2.925041e-01
2.950503e-01
2.975260e-01
2.992734e-01
1.498000e-01
1.498000e-01
1.498000e-01
1.498000e-01
1.498000e-01
1.498000e-01
1.498000e-01
1.498000e-01
1.498000e-01
1.498000e-01
1.498000e-01
3.420914e-01
3.744395e-01
1.818181e-01
2.095835e-01
2.018717e-01
3.079457e-01
3.142020e-01
3.285505e-01
3.267884e-01
3.495967e-01
3.493390e-01
3.581921e-01
3.382295e-01
4.030546e-01
1.617764e-01
3.862244e-01
3.633257e-01
3.908523e-01
3.470997e-01
3.790685e-01
3.642990e-01
3.982240e-01
3.832443e-01
1.660565e-01
2.087572e-01
1.850124e-01
1.749418e-01
1.645927e-01
2.038940e-01
2.290349e-01
1.960370e-01
2.289754e-01
2.155261e-01
2.395357e-01
2.260041e-01
2.499796e-01
2.631279e-01
1.713280e-01
3.125447e-01
1.650536e-01
1.743658e-01
1.891839e-01
3.028765e-01
3.171467e-01
3.300561e-01
4.776992e-01
4.548522e-01
4.671607e-01
4.749751e-01
4.231469e-01
4.335756e-01
4.432510e-01
4.528000e-01
1.882030e-01
1.772815e-01
1.632298e-01
4.654525e-01
4.201405e-01
4.294159e-01
4.392352e-01
4.579059e-01
4.074725e-01
4.115775e-01
4.373817e-01
4.473715e-01
3.004958e-01
3.084150e-01
3.180464e-01
3.880745e-01
4.048179e-01
4.284682e-01
3.695101e-01
3.903032e-01
3.973918e-01
4.067014e-01
4.140796e-01
4.185887e-01
4.234729e-01
2.872858e-01
3.287094e-01
3.453550e-01
3.686757e-01
3.813506e-01
3.981545e-01
4.144221e-01
2.907707e-01
2.972424e-01
3.062953e-01
3.571342e-01
3.723832e-01
2.028498e-01
1.916747e-01
3.860981e-01
3.986057e-01
2.721374e-01
3.172303e-01
3.293205e-01
3.502533e-01
3.605266e-01
3.716432e-01
3.818517e-01
2.763732e-01
2.822569e-01
2.905464e-01
3.354719e-01
3.466148e-01
3.557365e-01
3.644168e-01
2.990635e-01
2.176130e-01
2.043938e-01
1.903186e-01
1.769876e-01
1.638249e-01
3.065543e-01
3.247075e-01
3.311582e-01
3.386664e-01
3.460190e-01
2.527206e-01
2.577644e-01
2.641153e-01
2.723677e-01
3.073560e-01
3.139637e-01
3.211534e-01
3.271617e-01
2.782221e-01
2.829948e-01
2.896014e-01
2.976222e-01
3.042644e-01
3.081443e-01
1.656186e-01
1.815017e-01
2.005455e-01
2.171823e-01
2.338262e-01
2.508298e-01
2.682867e-01
2.304570e-01
2.341985e-01
2.495231e-01
2.528032e-01
2.570998e-01
2.647426e-01
2.738914e-01
2.844876e-01
2.858512e-01
2.878687e-01
2.334573e-01
2.192183e-01
2.056043e-01
1.926421e-01
1.798157e-01
1.650730e-01
2.378096e-01
2.518173e-01
2.676052e-01
2.105046e-01
2.218207e-01
2.352609e-01
2.502164e-01
5.000000e-01
5.000000e-01
5.000000e-01
5.000000e-01
5.000000e-01
5.000000e-01
5.000000e-01
5.000000e-01
5.000000e-01
5.000000e-01
5.000000e-01
5.000000e-01
5.000000e-01
5.000000e-01
5.000000e-01
5.000000e-01
5.000000e-01
5.000000e-01
5.000000e-01
5.000000e-01
5.000000e-01
5.000000e-01
5.000000e-01
5.000000e-01
5.000000e-01
5.000000e-01
5.000000e-01
5.000000e-01
5.000000e-01
5.000000e-01
5.000000e-01
5.000000e-01
5.000000e-01
1.498000e-01
1.498000e-01
1.498000e-01
1.498000e-01
1.498000e-01
1.498000e-01
1.498000e-01
1.498000e-01
1.498000e-01
1.498000e-01
1.498000e-01
1.498000e-01
1.498000e-01
1.498000e-01
1.498000e-01
1.498000e-01
1.498000e-01
1.498000e-01
1.498000e-01
1.498000e-01
1.498000e-01
1.498000e-01
1.498000e-01
1.498000e-01
1.498000e-01
1.498000e-01
1.498000e-01
1.498000e-01
1.498000e-01
1.498000e-01
1.498000e-01
1.498000e-01
1.498000e-01
3.399063e-01
3.524562e-01
3.475656e-01
3.596799e-01
3.724496e-01
3.975626e-01
3.752169e-01
3.847298e-01
2.984393e-01
3.090640e-01
3.185763e-01
3.193032e-01
3.284503e-01
3.356790e-01
3.414682e-01
3.700759e-01
3.498908e-01
3.391952e-01
3.586604e-01
3.781671e-01
3.297260e-01
3.295476e-01
1.683018e-01
1.608255e-01
3.464792e-01
3.659684e-01
3.856259e-01
3.656448e-01
3.781581e-01
3.909802e-01
3.836537e-01
3.952808e-01
4.003642e-01
4.229407e-01
3.816193e-01
3.959828e-01
3.745784e-01
4.032204e-01
3.846685e-01
3.655299e-01
4.096905e-01
3.917591e-01
3.753005e-01
3.584544e-01
4.078021e-01
4.214339e-01
4.178217e-01
4.039111e-01
3.927372e-01
1.840193e-01
1.742721e-01
1.632452e-01
3.516652e-01
3.639417e-01
3.743841e-01
3.424846e-01
3.542067e-01
3.331823e-01
1.609685e-01
1.694640e-01
1.715333e-01
1.802828e-01
1.830570e-01
1.903476e-01
1.930243e-01
1.961491e-01
1.966863e-01
2.029537e-01
2.068502e-01
2.104848e-01
2.114833e-01
2.174510e-01
2.219893e-01
2.260946e-01
2.208975e-01
2.275288e-01
2.333278e-01
2.382219e-01
2.426963e-01
2.317930e-01
2.381816e-01
2.445837e-01
2.503383e-01
2.553883e-01
2.600933e-01
2.425184e-01
1.997350e-01
1.891873e-01
1.783852e-01
1.676726e-01
1.616502e-01
2.494414e-01
2.561443e-01
2.624752e-01
2.682000e-01
2.732062e-01
2.779788e-01
2.602647e-01
2.678937e-01
2.747349e-01
2.810155e-01
2.867282e-01
2.913255e-01
2.960016e-01
2.705971e-01
2.792309e-01
2.871866e-01
2.937621e-01
3.000018e-01
3.059594e-01
3.090927e-01
3.137859e-01
2.808470e-01
2.899379e-01
2.989622e-01
3.074124e-01
3.126250e-01
3.192812e-01
3.271077e-01
3.247153e-01
3.318514e-01
3.497416e-01
3.970952e-01
3.249153e-01
3.422302e-01
3.617959e-01
2.162895e-01
2.053430e-01
1.943093e-01
1.838252e-01
1.752830e-01
1.663013e-01
3.816792e-01
3.128000e-01
3.314345e-01
3.515800e-01
3.720982e-01
3.898681e-01
4.058514e-01
3.499891e-01
3.615046e-01
3.679976e-01
3.752203e-01
3.814692e-01
3.892572e-01
3.974119e-01
4.058058e-01
4.068252e-01
4.109924e-01
4.156304e-01
4.178683e-01
4.212991e-01
4.254077e-01
3.891796e-01
3.992118e-01
4.075934e-01
4.159492e-01
4.241426e-01
4.304990e-01
4.347042e-01
4.044671e-01
4.088186e-01
4.162662e-01
4.255088e-01
4.330932e-01
4.386356e-01
4.432936e-01
4.203073e-01
4.349846e-01
4.328995e-01
4.441590e-01
4.471379e-01
4.513561e-01
4.556054e-01
4.590731e-01
4.336117e-01
4.499661e-01
4.598750e-01
4.658749e-01
4.462958e-01
4.604818e-01
4.667970e-01
4.719078e-01
4.679351e-01
4.781272e-01
2.341706e-01
2.226551e-01
2.111836e-01
2.002159e-01
1.902531e-01
1.804159e-01
1.692245e-01
1.624428e-01
4.749036e-01
4.838737e-01
4.776396e-01
4.849631e-01
4.927110e-01
4.979101e-01
4.952577e-01
4.917793e-01
4.913087e-01
4.876009e-01
4.858736e-01
4.866387e-01
4.791269e-01
4.800467e-01
4.811934e-01
4.825797e-01
4.711740e-01
4.720060e-01
4.733053e-01
4.749112e-01
4.767345e-01
4.624189e-01
4.638782e-01
4.657304e-01
4.678619e-01
4.701568e-01
4.601882e-01
4.629655e-01
4.510168e-01
4.528361e-01
4.549653e-01
4.574603e-01
4.381343e-01
4.401715e-01
4.425298e-01
4.454160e-01
4.487223e-01
4.520899e-01
4.552230e-01
4.243591e-01
4.260519e-01
4.283607e-01
4.315412e-01
4.355451e-01
4.399557e-01
4.436965e-01
4.466763e-01
3.945626e-01
3.957756e-01
4.107496e-01
4.125034e-01
4.155005e-01
4.203981e-01
4.258638e-01
4.322287e-01
4.334165e-01
4.375644e-01
3.942013e-01
4.083627e-01
3.839888e-01
1.910936e-01
2.138411e-01
2.006393e-01
2.187583e-01
2.117715e-01
2.371560e-01
2.317254e-01
2.241190e-01
2.617212e-01
2.524070e-01
2.533491e-01
2.411295e-01
2.290873e-01
2.175090e-01
2.066014e-01
1.960654e-01
1.855409e-01
1.765364e-01
1.670441e-01
2.445435e-01
2.366531e-01
2.845485e-01
2.748734e-01
2.658032e-01
2.573453e-01
2.492291e-01
2.977693e-01
2.878759e-01
2.787357e-01
2.701038e-01
2.618183e-01
3.206477e-01
3.101698e-01
3.005158e-01
2.914807e-01
2.828442e-01
2.744430e-01
3.427117e-01
3.322072e-01
3.222427e-01
3.129766e-01
3.041854e-01
2.956065e-01
2.870784e-01
3.630033e-01
3.537759e-01
3.435018e-01
3.341661e-01
3.254364e-01
3.169756e-01
3.083838e-01
2.996413e-01
3.796874e-01
3.762917e-01
3.638354e-01
3.546778e-01
3.460842e-01
3.381647e-01
3.299090e-01
3.209963e-01
3.119783e-01
4.299032e-01
4.176166e-01
4.023374e-01
3.850398e-01
3.655824e-01
3.448800e-01
3.239188e-01
4.135304e-01
3.971242e-01
3.783629e-01
3.560770e-01
3.351842e-01
1.621010e-01
1.600272e-01
1.624897e-01
1.751620e-01
1.705595e-01
1.780958e-01
1.891765e-01
1.611174e-01
1.719013e-01
1.825152e-01
1.925595e-01
2.039977e-01
1.617586e-01
1.733002e-01
1.845084e-01
1.959984e-01
2.075100e-01
2.196800e-01
2.736998e-01
2.606084e-01
2.479590e-01
2.358197e-01
2.242066e-01
2.130236e-01
2.021507e-01
1.919273e-01
1.816819e-01
1.704258e-01
1.625492e-01
1.588956e-01
1.645770e-01
1.749883e-01
1.863893e-01
1.983748e-01
2.106196e-01
2.233174e-01
2.362889e-01
1.580886e-01
1.608465e-01
1.701748e-01
1.782415e-01
1.887256e-01
2.006455e-01
2.131973e-01
2.263614e-01
2.399721e-01
2.538255e-01
1.638538e-01
1.730631e-01
1.824403e-01
1.919219e-01
2.032028e-01
2.157011e-01
2.290181e-01
2.428801e-01
2.572952e-01
2.725754e-01
2.889562e-01
1.593288e-01
1.681886e-01
1.765083e-01
1.860198e-01
1.958069e-01
2.060804e-01
2.183109e-01
2.315931e-01
2.455100e-01
2.599416e-01
2.747353e-01
2.899218e-01
3.036753e-01
1.599124e-01
1.699665e-01
1.788405e-01
1.895749e-01
2.000109e-01
2.101199e-01
2.206250e-01
2.341734e-01
2.480460e-01
2.625185e-01
2.773439e-01
2.922703e-01
3.078027e-01
3.201912e-01
1.554523e-01
1.614685e-01
1.709386e-01
1.816381e-01
1.902659e-01
2.041259e-01
2.151624e-01
2.255094e-01
2.348619e-01
2.512433e-01
2.647713e-01
2.799599e-01
2.949954e-01
3.095295e-01
3.277608e-01
3.368550e-01
2.949813e-01
2.808429e-01
2.675691e-01
2.550018e-01
2.429094e-01
2.311770e-01
2.197505e-01
2.086998e-01
1.978060e-01
1.868115e-01
1.766910e-01
1.645745e-01
4.990278e-01
4.996611e-01
4.967187e-01
4.984377e-01
4.995715e-01
4.930936e-01
4.959719e-01
4.980954e-01
4.994890e-01
4.837480e-01
4.883729e-01
4.922367e-01
4.953916e-01
4.978176e-01
4.994150e-01
4.656803e-01
4.760237e-01
4.822582e-01
4.872050e-01
4.913736e-01
4.948356e-01
4.975357e-01
4.993337e-01
4.691707e-01
4.752224e-01
4.808975e-01
4.859957e-01
4.904499e-01
4.942117e-01
4.971884e-01
4.992189e-01
4.541382e-01
4.605238e-01
4.668837e-01
4.732886e-01
4.792344e-01
4.846146e-01
4.893638e-01
4.934120e-01
4.966630e-01
4.989877e-01
4.995753e-01
4.407698e-01
4.495005e-01
4.571033e-01
4.642934e-01
4.710715e-01
4.773233e-01
4.829880e-01
4.880038e-01
4.922813e-01
4.956704e-01
4.979410e-01
4.994265e-01
4.156355e-01
4.270205e-01
4.370387e-01
4.458431e-01
4.539407e-01
4.615298e-01
4.686047e-01
4.751214e-01
4.810343e-01
4.862874e-01
4.908041e-01
4.944893e-01
4.973469e-01
4.992776e-01
3.840028e-01
4.001053e-01
4.127965e-01
4.237452e-01
4.333959e-01
4.423120e-01
3.168262e-01
3.014618e-01
2.875141e-01
2.747814e-01
2.624578e-01
2.503616e-01
2.384632e-01
2.267783e-01
2.152622e-01
2.038694e-01
1.926771e-01
1.810946e-01
1.695512e-01
4.506812e-01
4.585226e-01
4.658219e-01
4.725525e-01
4.786733e-01
4.841690e-01
4.890362e-01
4.932444e-01
4.967691e-01
4.990997e-01
1.607064e-01
1.724677e-01
1.850359e-01
1.989159e-01
2.138831e-01
2.300251e-01
2.470709e-01
2.648315e-01
2.830384e-01
3.014696e-01
3.200507e-01
3.387004e-01
3.572268e-01
3.757776e-01
3.935511e-01
4.101442e-01
4.253706e-01
4.399671e-01
4.547532e-01
4.647224e-01
4.739535e-01
4.839889e-01
4.910103e-01
4.962870e-01
3.691901e-01
3.866326e-01
3.985122e-01
4.101187e-01
4.200330e-01
4.295326e-01
4.386173e-01
4.471750e-01
4.551713e-01
4.626432e-01
4.695285e-01
4.757682e-01
4.815148e-01
4.868222e-01
4.914606e-01
4.963756e-01
4.985912e-01
1.614521e-01
1.738992e-01
1.871669e-01
2.016939e-01
2.172843e-01
2.339936e-01
2.515614e-01
2.698000e-01
2.884748e-01
3.074020e-01
3.264163e-01
3.453338e-01
3.639783e-01
3.821065e-01
3.993935e-01
4.156638e-01
4.308564e-01
4.450041e-01
4.575353e-01
4.684337e-01
4.780961e-01
4.865167e-01
4.931328e-01
4.978827e-01
1.622150e-01
1.753720e-01
1.893434e-01
2.045396e-01
2.207941e-01
2.381243e-01
2.562688e-01
2.750294e-01
2.941707e-01
3.134830e-01
3.327566e-01
3.517794e-01
3.703331e-01
3.881917e-01
4.051569e-01
4.210849e-01
4.358567e-01
4.493172e-01
4.613276e-01
4.719237e-01
4.810902e-01
4.887266e-01
4.946274e-01
4.985438e-01
1.630057e-01
1.768720e-01
1.915910e-01
2.075271e-01
2.245091e-01
2.425052e-01
2.612447e-01
2.805115e-01
3.000587e-01
3.388599e-01
3.221603e-01
3.070729e-01
2.947908e-01
2.825940e-01
2.703642e-01
2.581544e-01
2.460234e-01
2.339970e-01
2.220603e-01
2.102718e-01
1.983729e-01
1.864344e-01
1.737858e-01
1.653676e-01
3.196582e-01
3.390849e-01
3.581173e-01
3.765377e-01
3.941446e-01
4.107698e-01
4.262737e-01
4.405298e-01
4.534328e-01
4.649253e-01
4.749729e-01
4.835081e-01
4.904363e-01
4.956190e-01
4.988764e-01
1.637169e-01
1.784130e-01
1.940105e-01
2.107850e-01
2.285513e-01
2.472279e-01
2.665410e-01
2.862616e-01
3.061400e-01
3.259450e-01
3.454537e-01
3.644433e-01
3.826936e-01
4.000087e-01
4.162377e-01
4.312593e-01
4.449717e-01
4.573025e-01
4.682049e-01
4.776249e-01
4.854977e-01
4.917538e-01
4.963091e-01
4.990769e-01
1.645713e-01
1.802537e-01
1.968402e-01
2.145084e-01
2.330709e-01
2.523947e-01
2.722155e-01
2.923067e-01
3.124290e-01
3.323734e-01
3.519252e-01
3.708377e-01
3.888727e-01
4.058289e-01
4.215918e-01
4.360713e-01
4.491982e-01
4.609168e-01
4.711858e-01
4.799464e-01
4.871627e-01
4.928055e-01
4.968315e-01
4.992204e-01
1.658416e-01
1.826482e-01
2.003247e-01
2.189045e-01
2.382172e-01
2.581140e-01
2.783124e-01
2.986374e-01
3.188983e-01
3.389807e-01
3.585843e-01
3.773833e-01
3.951579e-01
4.116560e-01
4.268544e-01
4.407018e-01
4.532273e-01
4.643199e-01
4.739243e-01
4.819912e-01
4.885812e-01
4.936946e-01
4.972746e-01
4.993438e-01
1.674948e-01
1.858379e-01
2.047954e-01
2.241056e-01
2.441641e-01
2.645779e-01
2.848040e-01
3.050491e-01
3.254136e-01
3.459539e-01
3.655455e-01
3.841292e-01
4.017080e-01
4.175727e-01
4.319750e-01
4.450143e-01
4.571776e-01
4.676441e-01
4.764569e-01
4.837272e-01
4.897977e-01
4.945238e-01
3.605901e-01
3.437061e-01
3.246816e-01
3.146985e-01
3.030954e-01
2.909649e-01
2.786217e-01
2.662070e-01
2.538053e-01
2.414638e-01
2.291746e-01
2.169355e-01
2.047352e-01
1.927526e-01
1.823691e-01
1.707424e-01
4.977236e-01
4.994741e-01
1.711678e-01
1.917580e-01
2.097764e-01
2.300633e-01
2.514311e-01
2.724578e-01
2.913795e-01
3.089180e-01
3.328047e-01
3.537882e-01
3.727701e-01
3.908281e-01
4.093534e-01
4.240109e-01
4.359692e-01
4.487523e-01
4.617627e-01
4.713131e-01
4.782910e-01
4.850337e-01
4.908193e-01
4.954949e-01
4.983336e-01
4.995737e-01
4.995428e-01
4.993121e-01
4.979879e-01
4.995703e-01
4.987982e-01
4.972193e-01
4.951819e-01
4.993107e-01
4.979706e-01
4.961777e-01
4.937983e-01
4.910420e-01
4.987657e-01
4.971248e-01
4.949145e-01
4.921954e-01
4.890060e-01
4.854723e-01
4.993663e-01
4.975568e-01
4.959760e-01
4.935078e-01
4.904119e-01
4.868082e-01
4.827853e-01
4.783938e-01
4.699048e-01
4.991322e-01
4.972737e-01
4.947602e-01
4.919578e-01
4.885020e-01
4.844765e-01
4.799854e-01
4.751219e-01
4.602932e-01
4.995512e-01
4.986610e-01
4.966487e-01
4.938204e-01
4.904197e-01
4.865287e-01
4.820645e-01
4.770879e-01
4.717111e-01
4.660698e-01
4.496122e-01
4.993039e-01
4.978747e-01
4.957630e-01
4.927266e-01
4.889461e-01
4.845684e-01
4.796364e-01
4.741605e-01
4.682141e-01
4.619670e-01
4.556727e-01
4.988370e-01
4.971516e-01
4.947115e-01
4.914680e-01
4.874006e-01
4.826267e-01
4.772373e-01
4.712724e-01
4.647686e-01
4.577874e-01
4.506783e-01
4.438607e-01
4.372111e-01
4.224206e-01
4.994726e-01
4.978714e-01
4.962603e-01
4.936343e-01
4.901237e-01
4.857780e-01
4.806620e-01
4.748690e-01
4.684550e-01
4.614510e-01
4.538931e-01
4.455769e-01
4.377083e-01
4.307371e-01
3.666528e-01
3.812422e-01
4.992947e-01
4.978447e-01
4.954930e-01
4.925874e-01
4.887984e-01
4.841403e-01
4.786802e-01
4.725097e-01
4.657056e-01
4.582610e-01
4.502157e-01
4.417514e-01
4.302918e-01
4.233668e-01
4.174180e-01
4.021566e-01
1.498000e-01
1.498000e-01
1.498000e-01
1.498000e-01
1.498000e-01
1.498000e-01
1.498000e-01
1.498000e-01
1.498000e-01
1.498000e-01
1.498000e-01
1.498000e-01
1.498000e-01
1.498000e-01
1.498000e-01
1.498000e-01
1.498000e-01
1.498000e-01
1.498000e-01
1.498000e-01
1.498000e-01
1.498000e-01
1.498000e-01
1.498000e-01
1.498000e-01
1.498000e-01
1.498000e-01
1.498000e-01
1.498000e-01
1.498000e-01
1.498000e-01
1.498000e-01
1.498000e-01
1.498000e-01
1.498000e-01
1.498000e-01
1.498000e-01
1.498000e-01
1.498000e-01
1.498000e-01
1.498000e-01
1.498000e-01
1.498000e-01
1.498000e-01
1.498000e-01
1.498000e-01
1.498000e-01
1.498000e-01
1.498000e-01
1.498000e-01
1.498000e-01
1.498000e-01
1.498000e-01
1.498000e-01
1.498000e-01
1.498000e-01
1.498000e-01
1.498000e-01
1.498000e-01
1.498000e-01
1.498000e-01
1.498000e-01
1.498000e-01
1.498000e-01
1.498000e-01
1.498000e-01
1.498000e-01
1.498000e-01
1.498000e-01
1.498000e-01
1.498000e-01
1.498000e-01
1.498000e-01
1.498000e-01
1.498000e-01
1.498000e-01
1.498000e-01
1.498000e-01
1.498000e-01
1.498000e-01
1.498000e-01
1.498000e-01
1.498000e-01
1.498000e-01
1.498000e-01
1.498000e-01
1.498000e-01
1.498000e-01
1.498000e-01
1.498000e-01
1.498000e-01
1.498000e-01
1.498000e-01
1.498000e-01
1.498000e-01
1.498000e-01
1.498000e-01
1.498000e-01
1.498000e-01
1.498000e-01
1.498000e-01
1.498000e-01
1.498000e-01
1.498000e-01
1.498000e-01
1.498000e-01
1.498000e-01
1.498000e-01
1.498000e-01
1.498000e-01
1.498000e-01
1.498000e-01
1.498000e-01
1.498000e-01
1.498000e-01
1.498000e-01
1.498000e-01
1.498000e-01
1.498000e-01
1.498000e-01
1.498000e-01
1.498000e-01
1.498000e-01
1.498000e-01
1.498000e-01
1.498000e-01
1.498000e-01
1.498000e-01
1.498000e-01
1.498000e-01
1.498000e-01
1.498000e-01
1.498000e-01
1.498000e-01
1.498000e-01
1.498000e-01
1.498000e-01
1.498000e-01
1.498000e-01
1.498000e-01
1.498000e-01
1.498000e-01
1.498000e-01
1.498000e-01
1.498000e-01
1.498000e-01
1.498000e-01
1.498000e-01
1.498000e-01
1.498000e-01
1.498000e-01
1.498000e-01
1.498000e-01
1.498000e-01
1.498000e-01
1.498000e-01
1.498000e-01
1.498000e-01
1.498000e-01
1.498000e-01
1.498000e-01
1.498000e-01
1.498000e-01
1.498000e-01
1.498000e-01
1.498000e-01
1.498000e-01
1.498000e-01
1.498000e-01
1.498000e-01
1.498000e-01
1.498000e-01
1.498000e-01
1.498000e-01
1.498000e-01
1.498000e-01
1.498000e-01
1.498000e-01
1.498000e-01
1.498000e-01
1.498000e-01
1.498000e-01
1.498000e-01
1.498000e-01
1.498000e-01
1.498000e-01
1.498000e-01
1.498000e-01
1.498000e-01
1.498000e-01
1.498000e-01
1.498000e-01
1.498000e-01
1.498000e-01
1.498000e-01
1.498000e-01
1.498000e-01
1.498000e-01
1.498000e-01
1.498000e-01
1.498000e-01
1.498000e-01
1.498000e-01
1.498000e-01
1.498000e-01
1.498000e-01
1.498000e-01
1.498000e-01
1.498000e-01
1.498000e-01
1.498000e-01
1.498000e-01
1.498000e-01
1.498000e-01
1.498000e-01
1.498000e-01
1.498000e-01
1.498000e-01
1.498000e-01
1.498000e-01
1.498000e-01
1.498000e-01
1.498000e-01
1.498000e-01
1.498000e-01
1.498000e-01
1.498000e-01
1.498000e-01
1.498000e-01
1.498000e-01
1.498000e-01
1.498000e-01
1.498000e-01
1.498000e-01
1.498000e-01
1.498000e-01
1.498000e-01
1.498000e-01
1.498000e-01
1.498000e-01
1.498000e-01
1.498000e-01
1.498000e-01
1.498000e-01
1.498000e-01
1.498000e-01
1.498000e-01
1.498000e-01
1.498000e-01
1.498000e-01
1.498000e-01
1.498000e-01
1.498000e-01
1.498000e-01
1.498000e-01
1.498000e-01
1.498000e-01
1.498000e-01
1.498000e-01
1.498000e-01
1.498000e-01
1.498000e-01
1.498000e-01
1.498000e-01
1.498000e-01
1.498000e-01
1.498000e-01
1.498000e-01
1.498000e-01
1.498000e-01
1.498000e-01
1.498000e-01
1.498000e-01
1.498000e-01
1.498000e-01
1.498000e-01
1.498000e-01
1.498000e-01
1.498000e-01
1.498000e-01
1.498000e-01
1.498000e-01
1.498000e-01
1.498000e-01
1.498000e-01
1.498000e-01
1.498000e-01
1.498000e-01
1.498000e-01
1.498000e-01
1.498000e-01
1.498000e-01
1.498000e-01
1.498000e-01
1.498000e-01
1.498000e-01
1.498000e-01
1.498000e-01
1.498000e-01
1.498000e-01
1.498000e-01
1.498000e-01
1.498000e-01
1.498000e-01
1.498000e-01
1.498000e-01
1.498000e-01
1.498000e-01
1.498000e-01
1.498000e-01
1.498000e-01
1.498000e-01
1.498000e-01
1.498000e-01
1.498000e-01
1.498000e-01
1.498000e-01
1.498000e-01
1.498000e-01
1.498000e-01
1.498000e-01
1.498000e-01
1.498000e-01
1.498000e-01
1.498000e-01
1.498000e-01
1.498000e-01
1.498000e-01
1.498000e-01
1.498000e-01
1.498000e-01
1.498000e-01
1.498000e-01
1.498000e-01
1.498000e-01
1.498000e-01
1.498000e-01
1.498000e-01
1.498000e-01
1.498000e-01
1.498000e-01
1.498000e-01
1.498000e-01
1.498000e-01
1.498000e-01
1.498000e-01
1.498000e-01
1.498000e-01
1.498000e-01
1.498000e-01
1.498000e-01
1.498000e-01
1.498000e-01
1.498000e-01
1.498000e-01
1.498000e-01
1.498000e-01
1.498000e-01
1.498000e-01
1.498000e-01
1.498000e-01
1.498000e-01
1.498000e-01
1.498000e-01
1.498000e-01
1.498000e-01
1.498000e-01
1.498000e-01
1.498000e-01
1.498000e-01
2.998000e-01
2.998000e-01
2.998000e-01
2.998000e-01
2.998000e-01
2.998000e-01
2.998000e-01
2.998000e-01
2.998000e-01
2.998000e-01
2.998000e-01
2.998000e-01
2.998000e-01
2.998000e-01
2.998000e-01
2.998000e-01
2.998000e-01
2.998000e-01
2.998000e-01
2.998000e-01
2.998000e-01
2.998000e-01
2.998000e-01
2.998000e-01
2.998000e-01
2.998000e-01
2.998000e-01
2.998000e-01
2.998000e-01
2.998000e-01
2.998000e-01
2.998000e-01
2.998000e-01
2.509376e-01
2.437753e-01
2.621703e-01
2.482988e-01
2.538670e-01
2.399804e-01
2.393826e-01
2.335121e-01
2.291936e-01
2.502638e-01
2.433340e-01
2.372921e-01
2.482485e-01
2.358047e-01
2.450833e-01
1.675465e-01
2.979271e-01
2.949338e-01
2.881845e-01
2.912848e-01
2.890484e-01
2.831242e-01
2.894216e-01
2.855735e-01
2.815908e-01
2.822477e-01
2.774764e-01
2.725048e-01
2.778475e-01
2.728287e-01
2.678535e-01
2.622014e-01
2.957212e-01
2.728553e-01
2.674071e-01
2.618319e-01
2.583864e-01
2.509911e-01
2.480121e-01
2.530378e-01
2.408272e-01
2.682958e-01
2.579543e-01
2.986116e-01
2.459973e-01
2.317945e-01
2.385229e-01
2.326005e-01
2.265460e-01
2.217631e-01
2.194281e-01
2.238345e-01
2.179590e-01
2.132941e-01
2.097684e-01
2.146723e-01
2.075506e-01
2.039738e-01
2.002932e-01
1.968143e-01
1.940578e-01
1.908564e-01
1.838757e-01
1.813726e-01
1.709627e-01
2.074657e-01
1.924296e-01
1.805590e-01
1.710062e-01
1.604656e-01
2.879893e-01
2.829599e-01
2.990254e-01
2.963090e-01
2.978320e-01
2.920534e-01
2.941282e-01
2.892204e-01
2.835610e-01
2.915646e-01
2.951072e-01
2.981781e-01
1.858872e-01
1.745482e-01
1.614743e-01
1.852884e-01
1.714367e-01
1.582357e-01
2.876152e-01
2.825850e-01
2.988914e-01
2.960330e-01
2.976255e-01
2.917379e-01
2.938120e-01
2.888117e-01
2.830839e-01
1.852742e-01
1.742329e-01
1.615151e-01
1.859117e-01
1.718512e-01
1.583703e-01
2.988002e-01
2.957927e-01
2.973524e-01
2.913937e-01
2.933705e-01
2.884216e-01
2.830232e-01
1.864800e-01
1.749091e-01
1.615179e-01
2.985653e-01
2.947161e-01
2.909169e-01
2.880571e-01
2.846470e-01
2.831430e-01
2.745230e-01
1.857619e-01
1.727024e-01
1.591267e-01
2.105743e-01
1.974159e-01
1.840146e-01
1.692516e-01
1.581938e-01
2.884715e-01
2.836360e-01
2.989407e-01
2.961530e-01
2.976917e-01
2.918207e-01
2.939636e-01
2.888616e-01
2.831836e-01
1.881469e-01
1.763696e-01
1.626930e-01
1.858657e-01
1.723299e-01
2.771017e-01
2.845183e-01
2.895953e-01
2.936258e-01
1.587214e-01
2.988540e-01
2.961364e-01
2.922530e-01
1.878712e-01
1.762456e-01
1.618207e-01
2.858580e-01
2.804105e-01
2.985536e-01
2.953084e-01
2.971296e-01
2.907033e-01
2.926685e-01
2.846450e-01
2.867255e-01
2.770916e-01
2.802669e-01
2.061674e-01
1.938975e-01
1.817558e-01
1.707457e-01
1.595557e-01
1.823723e-01
1.694805e-01
1.575455e-01
2.985245e-01
2.950230e-01
2.966171e-01
2.900856e-01
2.923223e-01
2.872131e-01
2.815284e-01
2.653463e-01
1.837322e-01
1.734933e-01
1.606653e-01
2.991205e-01
2.955844e-01
2.907744e-01
2.873297e-01
2.837976e-01
2.821408e-01
2.729683e-01
1.850139e-01
1.715778e-01
1.586079e-01
2.088191e-01
1.960113e-01
1.830380e-01
1.686608e-01
1.578921e-01
2.870017e-01
2.818182e-01
2.987083e-01
2.956461e-01
2.973990e-01
2.911732e-01
2.932809e-01
2.877513e-01
2.817262e-01
1.867776e-01
1.753319e-01
1.621336e-01
1.839176e-01
1.710915e-01
1.581759e-01
2.874159e-01
2.823577e-01
2.987259e-01
2.559853e-01
2.955995e-01
2.974045e-01
2.910260e-01
2.934182e-01
2.882901e-01
2.824423e-01
1.851439e-01
1.738020e-01
1.609245e-01
1.829577e-01
1.704129e-01
1.578866e-01
2.986855e-01
2.954740e-01
2.970429e-01
2.909638e-01
2.925752e-01
2.866722e-01
2.806832e-01
1.838342e-01
1.733817e-01
1.605497e-01
2.985062e-01
2.960555e-01
2.927774e-01
2.859071e-01
2.866620e-01
2.805495e-01
2.762349e-01
1.838459e-01
1.706922e-01
1.580901e-01
2.125829e-01
1.997364e-01
1.835000e-01
1.711528e-01
1.601956e-01
2.986145e-01
2.950458e-01
2.960634e-01
2.745924e-01
2.818852e-01
2.874801e-01
2.917146e-01
2.944273e-01
2.977100e-01
2.899479e-01
2.915133e-01
2.858094e-01
2.798337e-01
1.836416e-01
1.729323e-01
1.608899e-01
2.986984e-01
2.940977e-01
2.866247e-01
2.811682e-01
2.741530e-01
1.842826e-01
1.711833e-01
1.581743e-01
1.608204e-01
2.919369e-01
2.892771e-01
2.845363e-01
2.841637e-01
2.762892e-01
2.747588e-01
2.772766e-01
2.683288e-01
2.586790e-01
2.625689e-01
2.670680e-01
2.697078e-01
2.496823e-01
2.552613e-01
2.601446e-01
2.590807e-01
2.306163e-01
2.202947e-01
2.123767e-01
2.044063e-01
1.956667e-01
1.857062e-01
1.759889e-01
1.695838e-01
1.610723e-01
1.751654e-01
1.800036e-01
1.887872e-01
1.896396e-01
2.041844e-01
2.008399e-01
1.981079e-01
2.143892e-01
2.104656e-01
2.072664e-01
2.157638e-01
2.279665e-01
2.231679e-01
2.191105e-01
2.405506e-01
2.360284e-01
2.309463e-01
2.270855e-01
2.241226e-01
2.522013e-01
2.328687e-01
2.416288e-01
2.458052e-01
2.965137e-01
1.601207e-01
2.983208e-01
2.980266e-01
2.964342e-01
2.938608e-01
2.990962e-01
2.881659e-01
2.853961e-01
2.820060e-01
2.570058e-01
2.637263e-01
2.720971e-01
2.795130e-01
2.855507e-01
2.902437e-01
2.939034e-01
2.971656e-01
2.991200e-01
2.975473e-01
2.948588e-01
2.909037e-01
2.691716e-01
2.988172e-01
2.967152e-01
2.937526e-01
2.894594e-01
2.845183e-01
2.798510e-01
2.751314e-01
2.993444e-01
2.982081e-01
2.951923e-01
2.929964e-01
2.874872e-01
2.820787e-01
2.772268e-01
2.733292e-01
2.654121e-01
2.585365e-01
1.654566e-01
1.580669e-01
1.873915e-01
1.795345e-01
1.693513e-01
1.610959e-01
1.900891e-01
1.774167e-01
2.231589e-01
2.168700e-01
2.070976e-01
1.942845e-01
1.836539e-01
1.742581e-01
1.654573e-01
1.587362e-01
2.077524e-01
1.976358e-01
2.857683e-01
2.781558e-01
2.698973e-01
2.596469e-01
2.478686e-01
2.347712e-01
2.211580e-01
2.989571e-01
2.969603e-01
2.924329e-01
2.856421e-01
2.771586e-01
2.663716e-01
2.552370e-01
2.432006e-01
2.308985e-01
2.204586e-01
2.086523e-01
1.985256e-01
1.873130e-01
1.740301e-01
1.628282e-01
2.364513e-01
2.282758e-01
2.186032e-01
2.075368e-01
1.970294e-01
1.873684e-01
1.783071e-01
1.700421e-01
1.615869e-01
1.583388e-01
2.723902e-01
2.640157e-01
2.530218e-01
2.401859e-01
1.772593e-01
1.719000e-01
1.618080e-01
2.241371e-01
2.105298e-01
1.970679e-01
1.833628e-01
1.706681e-01
1.604056e-01
2.853843e-01
2.776942e-01
2.690704e-01
2.581959e-01
2.463089e-01
2.337097e-01
2.206911e-01
2.072205e-01
1.951659e-01
1.824725e-01
2.987161e-01
2.966524e-01
2.921405e-01
2.860564e-01
2.772378e-01
2.643027e-01
2.525232e-01
2.400643e-01
2.274009e-01
2.157935e-01
2.987237e-01
2.954577e-01
2.909193e-01
2.860792e-01
2.792248e-01