VARIABLES = "X" "Y" "Z" "FREF"
ZONE T="instant 106"
STRANDID=0, SOLUTIONTIME=0
Nodes=1235, Elements=2466
ZONETYPE=FETriangle
DATAPACKING=BLOCK
VARLOCATION = ([1-3]=NODAL, [4]=CELLCENTERED)
5.000000e-01
3.141903e-01
3.307675e-01
3.504018e-01
3.706652e-01
3.880726e-01
4.047010e-01
4.235582e-01
4.416006e-01
4.573029e-01
4.700358e-01
4.798892e-01
4.866870e-01
4.919662e-01
4.961418e-01
4.984922e-01
4.996877e-01
3.006000e-01
3.006000e-01
3.006000e-01
3.006000e-01
4.500453e-01
4.474329e-01
4.423614e-01
4.347471e-01
4.247030e-01
4.123358e-01
3.978291e-01
3.820048e-01
3.644839e-01
3.459031e-01
3.287151e-01
3.129690e-01
4.506000e-01
4.827192e-01
4.641348e-01
3.289187e-01
3.238472e-01
3.486714e-01
3.722222e-01
3.933888e-01
4.112749e-01
4.271766e-01
4.408961e-01
4.523399e-01
4.635022e-01
4.693699e-01
4.753753e-01
3.006000e-01
4.995702e-01
4.976428e-01
4.936654e-01
4.870447e-01
4.780558e-01
4.683190e-01
4.563131e-01
4.419311e-01
4.277141e-01
4.134294e-01
3.956874e-01
3.758782e-01
3.568922e-01
3.405556e-01
3.257786e-01
3.122572e-01
5.000000e-01
4.658897e-01
4.836711e-01
4.506000e-01
3.154404e-01
3.336662e-01
3.540651e-01
3.749422e-01
3.941174e-01
4.084147e-01
4.200595e-01
4.307600e-01
4.384584e-01
4.442129e-01
4.481832e-01
4.501636e-01
3.006000e-01
3.006000e-01
3.006000e-01
4.740482e-01
4.707962e-01
4.657236e-01
4.584800e-01
4.490546e-01
4.380332e-01
4.246245e-01
4.071127e-01
3.849887e-01
3.650741e-01
3.450484e-01
3.237748e-01
5.000000e-01
5.000000e-01
5.000000e-01
5.000000e-01
5.000000e-01
5.000000e-01
5.000000e-01
5.000000e-01
5.000000e-01
5.000000e-01
5.000000e-01
5.000000e-01
5.000000e-01
5.000000e-01
5.000000e-01
5.000000e-01
5.000000e-01
5.000000e-01
5.000000e-01
5.000000e-01
5.000000e-01
5.000000e-01
5.000000e-01
5.000000e-01
5.000000e-01
5.000000e-01
5.000000e-01
5.000000e-01
5.000000e-01
5.000000e-01
5.000000e-01
5.000000e-01
5.000000e-01
3.006000e-01
3.006000e-01
3.006000e-01
3.006000e-01
3.006000e-01
3.006000e-01
3.006000e-01
3.006000e-01
3.006000e-01
3.006000e-01
3.006000e-01
3.006000e-01
3.006000e-01
3.006000e-01
3.006000e-01
3.006000e-01
3.006000e-01
3.006000e-01
3.006000e-01
3.006000e-01
3.006000e-01
3.006000e-01
3.006000e-01
3.006000e-01
3.006000e-01
3.006000e-01
3.006000e-01
3.006000e-01
3.006000e-01
3.006000e-01
3.006000e-01
3.006000e-01
3.006000e-01
4.488448e-01
4.399304e-01
4.463972e-01
4.260557e-01
4.417955e-01
4.335599e-01
4.575365e-01
4.620566e-01
4.366958e-01
4.530705e-01
4.457432e-01
4.511788e-01
4.400957e-01
4.536922e-01
3.218033e-01
4.285074e-01
4.431753e-01
4.560228e-01
4.242596e-01
4.330040e-01
4.410983e-01
4.568087e-01
4.786220e-01
4.402771e-01
4.329530e-01
4.475961e-01
4.586517e-01
4.677757e-01
4.833121e-01
4.842381e-01
4.798021e-01
4.857524e-01
4.899413e-01
4.920184e-01
3.317072e-01
3.384866e-01
3.254084e-01
3.148941e-01
3.450273e-01
3.504466e-01
3.616757e-01
3.645661e-01
3.733451e-01
3.807319e-01
3.737167e-01
3.875070e-01
3.873872e-01
3.938110e-01
3.995096e-01
4.005773e-01
4.048253e-01
4.074487e-01
4.120526e-01
4.171310e-01
4.113773e-01
4.174537e-01
4.237776e-01
4.223629e-01
4.288617e-01
4.333032e-01
4.719221e-01
4.717784e-01
3.572671e-01
3.443015e-01
3.317042e-01
3.184948e-01
4.673045e-01
4.628124e-01
4.559571e-01
4.472247e-01
4.649200e-01
4.591740e-01
4.763807e-01
4.754265e-01
4.732506e-01
4.698827e-01
3.401138e-01
3.582054e-01
3.647075e-01
3.794689e-01
3.837819e-01
3.782215e-01
4.042856e-01
4.043885e-01
3.976081e-01
3.919804e-01
4.259271e-01
4.412401e-01
4.231311e-01
4.138473e-01
4.139395e-01
4.048404e-01
4.970967e-01
4.938555e-01
4.937500e-01
4.888959e-01
4.891982e-01
4.836522e-01
4.823423e-01
4.826984e-01
4.754956e-01
3.761363e-01
3.632124e-01
3.504046e-01
3.377016e-01
3.257317e-01
4.772220e-01
4.743417e-01
4.743664e-01
4.562905e-01
4.664176e-01
4.636744e-01
4.654645e-01
4.673086e-01
4.699185e-01
4.159825e-01
4.347935e-01
4.497451e-01
4.627214e-01
4.571127e-01
4.292071e-01
4.452016e-01
3.150850e-01
3.172140e-01
3.305891e-01
3.165203e-01
3.195658e-01
3.350051e-01
3.475381e-01
3.310514e-01
3.409235e-01
3.538166e-01
3.659156e-01
3.187447e-01
3.337426e-01
3.474239e-01
3.599696e-01
3.732013e-01
3.857216e-01
3.145294e-01
3.243401e-01
3.380891e-01
3.518962e-01
3.654171e-01
3.789223e-01
3.930956e-01
4.067626e-01
4.208528e-01
3.180368e-01
3.312728e-01
3.443923e-01
3.568356e-01
3.699602e-01
3.835426e-01
3.968869e-01
4.136699e-01
4.247643e-01
4.320456e-01
3.941350e-01
3.817782e-01
3.693975e-01
3.569219e-01
3.440525e-01
3.297234e-01
3.179778e-01
4.989393e-01
4.996124e-01
4.963366e-01
4.981624e-01
4.994723e-01
4.921060e-01
4.952526e-01
4.976626e-01
4.993515e-01
4.815065e-01
4.866721e-01
4.908305e-01
4.943209e-01
4.971814e-01
4.992036e-01
4.637501e-01
4.733587e-01
4.800478e-01
4.848727e-01
4.892844e-01
4.932374e-01
4.965331e-01
4.989556e-01
4.829122e-01
4.892177e-01
4.953819e-01
4.983474e-01
4.538101e-01
4.991188e-01
4.653938e-01
4.731142e-01
4.772393e-01
4.823222e-01
4.873518e-01
4.917375e-01
4.954192e-01
4.983302e-01
3.158728e-01
3.317355e-01
3.490354e-01
3.671983e-01
3.858605e-01
4.040160e-01
4.210399e-01
4.365173e-01
4.503278e-01
4.628883e-01
4.750114e-01
4.836671e-01
4.905098e-01
4.956159e-01
4.988213e-01
3.170359e-01
4.120568e-01
3.992519e-01
3.875660e-01
3.763933e-01
3.639577e-01
3.507234e-01
3.379372e-01
3.262121e-01
3.340658e-01
3.521485e-01
3.708225e-01
3.894355e-01
4.072947e-01
4.239425e-01
4.391409e-01
4.528676e-01
4.651901e-01
4.758304e-01
4.843970e-01
4.911041e-01
4.959796e-01
4.989803e-01
3.179529e-01
3.357723e-01
3.543342e-01
3.732471e-01
3.918593e-01
4.095564e-01
4.260005e-01
4.410049e-01
4.545050e-01
4.664138e-01
4.765842e-01
4.849329e-01
4.914732e-01
4.961880e-01
4.990454e-01
3.185879e-01
3.368876e-01
3.557453e-01
3.748041e-01
3.934088e-01
4.110246e-01
4.273357e-01
4.421882e-01
4.554835e-01
4.671449e-01
4.770903e-01
4.852826e-01
4.916935e-01
4.963007e-01
4.990752e-01
3.189806e-01
3.375590e-01
3.565981e-01
3.757287e-01
3.943399e-01
4.118988e-01
4.281324e-01
4.428759e-01
4.560450e-01
4.675672e-01
4.773948e-01
4.854872e-01
4.918185e-01
4.963592e-01
4.990902e-01
3.192025e-01
3.379394e-01
3.570675e-01
3.762454e-01
3.948482e-01
4.123825e-01
4.285641e-01
4.432484e-01
4.563442e-01
4.677971e-01
4.775593e-01
4.855988e-01
4.504870e-01
4.596700e-01
4.672021e-01
4.733966e-01
4.795050e-01
4.851254e-01
4.899673e-01
4.940399e-01
4.971546e-01
4.990428e-01
4.997862e-01
4.918833e-01
4.963893e-01
4.990974e-01
3.193245e-01
3.381366e-01
3.573141e-01
3.765048e-01
3.951103e-01
4.126239e-01
4.287826e-01
4.434323e-01
4.564943e-01
4.679108e-01
4.776427e-01
4.856537e-01
4.919159e-01
4.964040e-01
4.991013e-01
3.193909e-01
3.382383e-01
3.574307e-01
3.766348e-01
3.952345e-01
4.127432e-01
4.288860e-01
4.435213e-01
4.565649e-01
4.679661e-01
4.776823e-01
4.856808e-01
4.919316e-01
4.316894e-01
4.155581e-01
4.032114e-01
3.955677e-01
3.842274e-01
3.712916e-01
3.579590e-01
3.456432e-01
3.319573e-01
3.185916e-01
4.964116e-01
4.991036e-01
3.194224e-01
3.382822e-01
3.574961e-01
3.767052e-01
3.953108e-01
4.128111e-01
4.289481e-01
4.435720e-01
4.566071e-01
4.679983e-01
4.777068e-01
4.856972e-01
4.919414e-01
4.964159e-01
4.991045e-01
3.193910e-01
3.383179e-01
3.575619e-01
3.767904e-01
3.953939e-01
4.128933e-01
4.290177e-01
4.436329e-01
4.566562e-01
4.680393e-01
4.777378e-01
4.857196e-01
4.919548e-01
4.964219e-01
4.991057e-01
3.195213e-01
3.384470e-01
3.577056e-01
3.769444e-01
3.955603e-01
4.130455e-01
4.291560e-01
4.437494e-01
4.567575e-01
4.681218e-01
4.778046e-01
4.857675e-01
4.919857e-01
4.964369e-01
4.991094e-01
3.196362e-01
3.386212e-01
3.579560e-01
3.772684e-01
3.958929e-01
4.133628e-01
4.294338e-01
4.439954e-01
4.569671e-01
4.683013e-01
4.779465e-01
4.858738e-01
4.920542e-01
4.964725e-01
4.991195e-01
3.196207e-01
3.388971e-01
3.584879e-01
3.779077e-01
3.965445e-01
4.139544e-01
4.299647e-01
4.444615e-01
4.573800e-01
4.686492e-01
4.782292e-01
4.709489e-01
4.767794e-01
4.821055e-01
4.869793e-01
4.911766e-01
4.945456e-01
4.973919e-01
4.992782e-01
4.860815e-01
4.921916e-01
4.965446e-01
4.991408e-01
3.200397e-01
3.397188e-01
3.595865e-01
3.791087e-01
3.976687e-01
4.149630e-01
4.308669e-01
4.452828e-01
4.581052e-01
4.692717e-01
4.787258e-01
4.864519e-01
4.924340e-01
4.966733e-01
4.991778e-01
3.209770e-01
3.413781e-01
3.615972e-01
3.810763e-01
3.993825e-01
4.164738e-01
4.322846e-01
4.466007e-01
4.592848e-01
4.702646e-01
4.795176e-01
4.870451e-01
4.928280e-01
4.644198e-01
4.968785e-01
4.992310e-01
3.225978e-01
3.445238e-01
3.649606e-01
3.838431e-01
4.015357e-01
4.185272e-01
4.343738e-01
4.486065e-01
4.610373e-01
4.716902e-01
4.806226e-01
4.879440e-01
4.934437e-01
4.971682e-01
4.992791e-01
3.242682e-01
3.413041e-01
3.647634e-01
3.882831e-01
3.258817e-01
3.513448e-01
3.699689e-01
3.861691e-01
4.037438e-01
4.212548e-01
4.374189e-01
4.515557e-01
4.634578e-01
4.734030e-01
4.818644e-01
4.894021e-01
4.945383e-01
4.973150e-01
4.992511e-01
4.994855e-01
4.992110e-01
4.977572e-01
4.995110e-01
4.752180e-01
4.801204e-01
4.847609e-01
4.889999e-01
4.926700e-01
4.955705e-01
4.974517e-01
4.993767e-01
4.985970e-01
4.968184e-01
4.945820e-01
4.992286e-01
4.976899e-01
4.955977e-01
4.929011e-01
4.898388e-01
4.986253e-01
4.967563e-01
4.941829e-01
4.910126e-01
4.873766e-01
4.835258e-01
3.006000e-01
3.006000e-01
3.006000e-01
3.006000e-01
3.006000e-01
3.006000e-01
3.006000e-01
3.006000e-01
3.006000e-01
3.006000e-01
3.006000e-01
3.006000e-01
3.006000e-01
3.006000e-01
3.006000e-01
3.006000e-01
3.006000e-01
3.006000e-01
3.006000e-01
3.006000e-01
3.006000e-01
3.006000e-01
3.006000e-01
3.006000e-01
3.006000e-01
3.006000e-01
3.006000e-01
3.006000e-01
3.006000e-01
3.006000e-01
3.006000e-01
3.006000e-01
3.006000e-01
3.006000e-01
3.006000e-01
3.006000e-01
3.006000e-01
3.006000e-01
3.006000e-01
3.006000e-01
3.006000e-01
3.006000e-01
3.006000e-01
3.006000e-01
3.006000e-01
3.006000e-01
3.006000e-01
3.006000e-01
3.006000e-01
3.006000e-01
3.006000e-01
3.006000e-01
3.006000e-01
3.006000e-01
3.006000e-01
3.006000e-01
3.006000e-01
3.006000e-01
3.006000e-01
3.006000e-01
3.006000e-01
3.006000e-01
3.006000e-01
3.006000e-01
3.006000e-01
3.006000e-01
3.006000e-01
3.006000e-01
3.006000e-01
3.006000e-01
3.006000e-01
3.006000e-01
3.006000e-01
3.006000e-01
3.006000e-01
3.006000e-01
3.006000e-01
3.006000e-01
3.006000e-01
3.006000e-01
3.006000e-01
3.006000e-01
3.006000e-01
3.006000e-01
3.006000e-01
3.006000e-01
3.006000e-01
3.006000e-01
3.006000e-01
3.006000e-01
3.006000e-01
3.006000e-01
3.006000e-01
4.506000e-01
4.506000e-01
4.506000e-01
4.506000e-01
4.506000e-01
4.506000e-01
4.506000e-01
4.506000e-01
4.506000e-01
4.506000e-01
4.506000e-01
4.506000e-01
4.506000e-01
4.506000e-01
4.506000e-01
4.506000e-01
4.506000e-01
4.506000e-01
4.506000e-01
4.506000e-01
4.506000e-01
4.506000e-01
4.506000e-01
4.506000e-01
4.506000e-01
4.506000e-01
4.506000e-01
4.506000e-01
4.506000e-01
4.506000e-01
4.506000e-01
4.506000e-01
4.506000e-01
4.190730e-01
3.930605e-01
3.954675e-01
4.156698e-01
4.094539e-01
4.216812e-01
4.468793e-01
3.597089e-01
4.313477e-01
4.429078e-01
4.421762e-01
4.367250e-01
4.389406e-01
4.320113e-01
4.270140e-01
4.332963e-01
4.281532e-01
4.213659e-01
4.194198e-01
4.156894e-01
4.187042e-01
4.086694e-01
4.490295e-01
4.499674e-01
4.053699e-01
4.076270e-01
4.077575e-01
4.046104e-01
3.832707e-01
3.960904e-01
3.870775e-01
3.747272e-01
3.783731e-01
3.715664e-01
3.543970e-01
4.120885e-01
4.009151e-01
3.872875e-01
3.783142e-01
3.770011e-01
3.779367e-01
3.750831e-01
4.240867e-01
4.119340e-01
3.999647e-01
4.124457e-01
4.009646e-01
3.862565e-01
3.744783e-01
4.453154e-01
4.476593e-01
4.495988e-01
3.724281e-01
3.387219e-01
3.552759e-01
3.562703e-01
3.857679e-01
3.753642e-01
3.721228e-01
3.986104e-01
3.953160e-01
3.899604e-01
3.850801e-01
4.111461e-01
4.067710e-01
4.010565e-01
3.956402e-01
4.484381e-01
4.453719e-01
4.365710e-01
4.367570e-01
4.234355e-01
4.225593e-01
4.281272e-01
4.319860e-01
4.037709e-01
4.150279e-01
4.263298e-01
4.501199e-01
4.501389e-01
4.501712e-01
4.501373e-01
4.500753e-01
4.501250e-01
4.500764e-01
4.500592e-01
4.391988e-01
4.429329e-01
4.460823e-01
4.486428e-01
4.499507e-01
4.502294e-01
4.503353e-01
4.501914e-01
4.502627e-01
4.499838e-01
4.461215e-01
4.492695e-01
4.490551e-01
4.474883e-01
4.448666e-01
4.415794e-01
4.499853e-01
4.485377e-01
4.459616e-01
4.428088e-01
4.387892e-01
4.348264e-01
4.496879e-01
4.475285e-01
4.445133e-01
4.407387e-01
4.360533e-01
4.295138e-01
4.269731e-01
3.181145e-01
3.357892e-01
3.189669e-01
3.659024e-01
3.520129e-01
3.366285e-01
3.196918e-01
3.806223e-01
3.675515e-01
3.535809e-01
3.384635e-01
4.306337e-01
4.357825e-01
4.402189e-01
4.439149e-01
4.479324e-01
4.496818e-01
3.213744e-01
4.492260e-01
4.461446e-01
4.406974e-01
4.328263e-01
4.215523e-01
4.086202e-01
3.938398e-01
3.785640e-01
3.616418e-01
3.394716e-01
3.235873e-01
4.078772e-01
3.951186e-01
3.822538e-01
3.695693e-01
3.564891e-01
3.422490e-01
3.256163e-01
3.184184e-01
3.705290e-01
3.484682e-01
3.295109e-01
4.291870e-01
4.174094e-01
4.068188e-01
3.935512e-01
4.489274e-01
4.457767e-01
4.393611e-01
4.492824e-01
4.448246e-01
4.380700e-01
4.302802e-01
4.185649e-01
4.070932e-01
3.962037e-01
3.819711e-01
3.648173e-01
3.457287e-01
3.245723e-01
3.616965e-01
3.430475e-01
3.225406e-01
4.299311e-01
4.178999e-01
4.068033e-01
3.922458e-01
4.495716e-01
4.468980e-01
4.402674e-01
4.490590e-01
4.438746e-01
4.047739e-01
3.918187e-01
3.805378e-01
3.681584e-01
3.541712e-01
3.384347e-01
3.228671e-01
3.111475e-01
4.376540e-01
4.322583e-01
4.229539e-01
4.065558e-01
3.897759e-01
3.765623e-01
3.602015e-01
3.417278e-01
3.217354e-01
3.599319e-01
3.412845e-01
3.214464e-01
4.333643e-01
4.231352e-01
4.098147e-01
3.944377e-01
4.490450e-01
4.454833e-01
4.397952e-01
4.494802e-01
4.459356e-01
4.398021e-01
4.317963e-01
4.203406e-01
4.085211e-01
3.932742e-01
3.775388e-01
3.599890e-01
3.411333e-01
3.213235e-01
3.598655e-01
4.195969e-01
3.409121e-01
3.211683e-01
4.492089e-01
4.450460e-01
4.388726e-01
4.308907e-01
4.212475e-01
4.108243e-01
3.960411e-01
3.771609e-01
3.592374e-01
3.404406e-01
3.208892e-01
4.282790e-01
4.181147e-01
4.076391e-01
3.929983e-01
4.485361e-01
4.447153e-01
4.378098e-01
4.489173e-01
4.437813e-01
3.884992e-01
3.765394e-01
3.635103e-01
3.508346e-01
3.363671e-01
3.198227e-01
4.366859e-01
4.293826e-01
4.194758e-01
4.057302e-01
3.901949e-01
3.756589e-01
3.582953e-01
3.396914e-01
3.204124e-01
3.571225e-01
3.384864e-01
3.195682e-01
4.485770e-01
4.447406e-01
4.365450e-01
4.484096e-01
4.418209e-01
4.347980e-01
4.265988e-01
4.158373e-01
4.033926e-01
3.892108e-01
3.730928e-01
3.549742e-01
3.362723e-01
3.180037e-01
4.486623e-01
4.446415e-01
4.380078e-01
4.300790e-01
4.189502e-01
4.057161e-01
3.883062e-01
3.711626e-01
3.509006e-01
3.317516e-01
3.166861e-01
4.482706e-01
4.451446e-01
4.385860e-01
4.308798e-01
4.199266e-01
4.065904e-01
3.907795e-01
3.686889e-01
3.520229e-01
3.354313e-01
3.201752e-01
4.485840e-01
4.464576e-01
4.418203e-01
4.328250e-01
4.219001e-01
3.741848e-01
3.583098e-01
3.447818e-01
3.345034e-01
3.186934e-01
4.076516e-01
3.933630e-01
3.785525e-01
3.621463e-01
3.423072e-01
3.227923e-01
3.670119e-01
3.489868e-01
3.260302e-01
4.492877e-01
4.457954e-01
4.398404e-01
4.309670e-01
4.201597e-01
4.084092e-01
3.955475e-01
3.806681e-01
3.635106e-01
3.442142e-01
3.228223e-01
4.299631e-01
4.186469e-01
4.041967e-01
3.900680e-01
4.487638e-01
4.445715e-01
4.377376e-01
4.491561e-01
4.451301e-01
4.384667e-01
4.281077e-01
4.146582e-01
4.033493e-01
3.919144e-01
3.771695e-01
3.602220e-01
3.415207e-01
3.370377e-01
3.220297e-01
3.215142e-01
3.579522e-01
3.398267e-01
3.206282e-01
4.288289e-01
4.157979e-01
4.015039e-01
3.880646e-01
4.487007e-01
4.452022e-01
4.382162e-01
4.490158e-01
4.437578e-01
4.360727e-01
4.272665e-01
4.167657e-01
4.030307e-01
3.862157e-01
3.728084e-01
3.564219e-01
3.384627e-01
3.198172e-01
3.548340e-01
3.369821e-01
3.193576e-01
4.493207e-01
4.462209e-01
4.393890e-01
3.179660e-01
4.488636e-01
4.431683e-01
4.366434e-01
4.304765e-01
4.200945e-01
4.072594e-01
3.898067e-01
3.697520e-01
3.511684e-01
3.367485e-01
3.199328e-01
4.725558e-01
4.765467e-01
4.753218e-01
4.752918e-01
4.754491e-01
4.753770e-01
4.753925e-01
4.753949e-01
4.752511e-01
4.753312e-01
4.752514e-01
4.753247e-01
4.752229e-01
4.752981e-01
4.752574e-01
4.751493e-01
4.752445e-01
4.752322e-01
4.753528e-01
4.753752e-01
4.753311e-01
4.752825e-01
4.752256e-01
4.750996e-01
4.750300e-01
4.752909e-01
4.751552e-01
4.751639e-01
4.751733e-01
4.754026e-01
4.753172e-01
4.752291e-01
-4.625929e-18
3.889531e-01
3.749571e-01
3.566772e-01
3.355702e-01
3.152772e-01
2.936274e-01
2.657038e-01
2.344972e-01
2.021734e-01
1.704885e-01
1.403792e-01
1.146114e-01
8.927066e-02
6.199473e-02
3.880130e-02
1.767047e-02
3.995493e-01
3.546514e-01
3.767215e-01
3.356784e-01
2.235191e-02
5.333051e-02
8.577133e-02
1.184708e-01
1.505579e-01
1.817127e-01
2.115949e-01
2.389827e-01
2.649375e-01
2.887757e-01
3.081992e-01
3.241770e-01
-2.312965e-18
0.000000e+00
0.000000e+00
3.264879e-01
3.487459e-01
3.246843e-01
2.971607e-01
2.661263e-01
2.374358e-01
2.073253e-01
1.761554e-01
1.444106e-01
1.088703e-01
7.273041e-02
3.772567e-02
3.995493e-01
2.072764e-02
4.849355e-02
7.933749e-02
1.130818e-01
1.465012e-01
1.751495e-01
2.043976e-01
2.338737e-01
2.589607e-01
2.812047e-01
3.056657e-01
3.297204e-01
3.501827e-01
3.660900e-01
3.792997e-01
3.905066e-01
-4.625929e-18
0.000000e+00
0.000000e+00
-2.312965e-18
3.217728e-01
3.028321e-01
2.787081e-01
2.499174e-01
2.184303e-01
1.903622e-01
1.630656e-01
1.322353e-01
1.038971e-01
7.559949e-02
4.660622e-02
1.982687e-02
3.356784e-01
3.775092e-01
3.549382e-01
2.851008e-02
6.207876e-02
9.314401e-02
1.238995e-01
1.539527e-01
1.833002e-01
2.126379e-01
2.464901e-01
2.777549e-01
3.035456e-01
3.265953e-01
3.505854e-01
-1.387779e-17
-1.387779e-17
-1.387779e-17
-1.387779e-17
-1.387779e-17
-1.387779e-17
-1.387779e-17
-1.387779e-17
-1.387779e-17
-1.387779e-17
-1.387779e-17
-1.387779e-17
-1.387779e-17
-1.387779e-17
-1.387779e-17
-1.387779e-17
-1.387779e-17
-1.387779e-17
-1.387779e-17
-1.387779e-17
-1.387779e-17
-1.387779e-17
-1.387779e-17
-1.387779e-17
-1.387779e-17
-1.387779e-17
-1.387779e-17
-1.387779e-17
-1.387779e-17
-1.387779e-17
-1.387779e-17
-1.387779e-17
-1.387779e-17
3.995493e-01
3.995493e-01
3.995493e-01
3.995493e-01
3.995493e-01
3.995493e-01
3.995493e-01
3.995493e-01
3.995493e-01
3.995493e-01
3.995493e-01
3.995493e-01
3.995493e-01
3.995493e-01
3.995493e-01
3.995493e-01
3.995493e-01
3.995493e-01
3.995493e-01
3.995493e-01
3.995493e-01
3.995493e-01
3.995493e-01
3.995493e-01
3.995493e-01
3.995493e-01
3.995493e-01
3.995493e-01
3.995493e-01
3.995493e-01
3.995493e-01
3.995493e-01
3.995493e-01
2.203142e-01
2.376158e-01
2.252322e-01
2.616802e-01
2.341297e-01
2.490497e-01
2.016442e-01
1.910593e-01
2.435093e-01
2.114879e-01
2.265237e-01
2.154940e-01
2.373095e-01
2.101509e-01
3.826782e-01
2.576459e-01
2.315073e-01
2.050444e-01
2.645823e-01
2.500151e-01
2.354407e-01
2.032874e-01
1.446410e-01
2.369728e-01
2.501033e-01
2.228402e-01
1.990944e-01
1.765954e-01
1.280991e-01
1.245529e-01
1.406768e-01
1.185098e-01
9.978742e-02
8.898231e-02
3.741261e-01
3.680038e-01
3.796174e-01
3.883835e-01
3.618786e-01
3.566331e-01
3.452401e-01
3.421864e-01
3.325860e-01
3.241037e-01
3.321684e-01
3.159720e-01
3.161189e-01
3.080794e-01
3.006528e-01
2.992287e-01
2.934561e-01
2.898026e-01
2.832183e-01
2.756841e-01
2.841984e-01
2.751952e-01
2.653536e-01
2.675996e-01
2.570557e-01
2.494961e-01
1.651953e-01
1.656054e-01
3.498002e-01
3.625692e-01
3.741288e-01
3.854362e-01
1.778385e-01
1.892214e-01
2.051905e-01
2.235847e-01
1.839821e-01
1.978869e-01
1.518598e-01
1.548212e-01
1.613501e-01
1.709100e-01
3.665005e-01
3.488393e-01
3.420357e-01
3.255816e-01
3.204863e-01
3.270298e-01
2.941992e-01
2.940577e-01
3.031630e-01
3.104052e-01
2.618894e-01
2.351747e-01
2.663833e-01
2.805893e-01
2.804533e-01
2.934353e-01
5.380398e-02
7.814542e-02
7.880953e-02
1.047894e-01
1.033689e-01
1.268092e-01
1.317039e-01
1.303925e-01
1.546090e-01
3.294260e-01
3.436229e-01
3.566744e-01
3.687244e-01
3.793400e-01
1.491952e-01
1.581137e-01
1.580395e-01
2.044480e-01
1.801516e-01
1.870991e-01
1.826000e-01
1.778275e-01
1.708117e-01
2.774141e-01
2.468900e-01
2.184705e-01
1.894437e-01
2.026030e-01
2.564786e-01
2.275862e-01
3.882286e-01
3.864910e-01
3.751144e-01
3.870593e-01
3.845487e-01
3.711760e-01
3.594681e-01
3.747065e-01
3.657474e-01
3.532900e-01
3.407430e-01
3.852295e-01
3.723115e-01
3.595784e-01
3.470185e-01
3.327473e-01
3.181491e-01
3.886789e-01
3.805306e-01
3.683690e-01
3.552028e-01
3.412775e-01
3.262175e-01
3.089916e-01
2.907649e-01
2.699683e-01
3.858142e-01
3.745108e-01
3.624830e-01
3.502404e-01
3.363472e-01
3.207726e-01
3.041066e-01
2.808509e-01
2.637714e-01
2.516677e-01
3.076647e-01
3.228706e-01
3.369651e-01
3.501525e-01
3.628056e-01
3.758756e-01
3.858628e-01
3.255180e-02
1.968355e-02
6.041540e-02
4.282810e-02
2.296640e-02
8.849664e-02
6.873788e-02
4.829000e-02
2.545808e-02
1.347273e-01
1.146748e-01
9.531721e-02
7.514532e-02
5.301517e-02
2.820887e-02
1.869113e-01
1.610328e-01
1.398361e-01
1.220594e-01
1.029599e-01
8.195646e-02
5.877819e-02
3.230037e-02
1.295987e-01
1.032763e-01
6.779947e-02
4.061836e-02
2.098961e-01
2.967263e-02
1.827801e-01
1.617497e-01
1.491396e-01
1.317774e-01
1.117505e-01
9.052223e-02
6.752630e-02
4.082963e-02
3.875879e-01
3.741010e-01
3.580144e-01
3.393602e-01
3.179806e-01
2.945693e-01
2.696764e-01
2.438292e-01
2.172668e-01
1.890354e-01
1.560904e-01
1.267524e-01
9.695421e-02
6.606753e-02
3.431162e-02
3.866371e-01
2.832122e-01
3.009949e-01
3.158997e-01
3.291323e-01
3.428334e-01
3.563609e-01
3.685084e-01
3.789270e-01
3.720215e-01
3.549527e-01
3.353963e-01
3.135921e-01
2.900190e-01
2.650901e-01
2.390716e-01
2.119220e-01
1.832980e-01
1.535754e-01
1.239336e-01
9.389778e-02
6.327932e-02
3.191707e-02
3.858834e-01
3.704821e-01
3.527708e-01
3.326959e-01
3.105581e-01
2.868163e-01
2.617701e-01
2.356156e-01
2.083871e-01
1.801615e-01
1.512199e-01
1.218201e-01
9.194620e-02
6.162371e-02
3.088185e-02
3.853593e-01
3.694682e-01
3.513478e-01
3.309409e-01
3.085928e-01
2.847083e-01
2.595847e-01
2.333872e-01
2.062397e-01
1.782572e-01
1.496156e-01
1.204193e-01
9.076079e-02
6.070891e-02
3.039678e-02
3.850342e-01
3.688549e-01
3.504822e-01
3.298908e-01
3.074020e-01
2.834421e-01
2.582685e-01
2.320795e-01
2.049950e-01
1.771465e-01
1.486414e-01
1.195917e-01
9.008095e-02
6.022878e-02
3.014912e-02
3.848503e-01
3.685064e-01
3.500040e-01
3.293013e-01
3.067489e-01
2.827378e-01
2.575516e-01
2.313673e-01
2.043280e-01
1.765385e-01
1.481118e-01
1.191376e-01
2.169365e-01
1.967320e-01
1.781072e-01
1.609214e-01
1.416863e-01
1.210511e-01
9.965947e-02
7.697153e-02
5.326666e-02
3.092305e-02
1.462009e-02
8.972636e-02
5.998011e-02
3.002939e-02
3.847491e-01
3.683254e-01
3.497523e-01
3.290048e-01
3.064112e-01
2.823854e-01
2.571876e-01
2.310146e-01
2.039926e-01
1.762371e-01
1.478425e-01
1.189136e-01
8.954740e-02
5.985843e-02
2.996424e-02
3.846940e-01
3.682321e-01
3.496331e-01
3.288560e-01
3.062511e-01
2.822110e-01
2.570152e-01
2.308437e-01
2.038346e-01
1.760902e-01
1.477147e-01
1.188032e-01
8.946135e-02
2.522781e-01
2.780493e-01
2.956697e-01
3.058206e-01
3.199521e-01
3.348769e-01
3.490922e-01
3.612904e-01
3.739042e-01
3.853562e-01
5.979589e-02
2.992672e-02
3.846678e-01
3.681917e-01
3.495662e-01
3.287752e-01
3.061525e-01
2.821116e-01
2.569115e-01
2.307464e-01
2.037400e-01
1.760046e-01
1.476353e-01
1.187361e-01
8.940740e-02
5.975958e-02
2.991122e-02
3.846939e-01
3.681589e-01
3.494989e-01
3.286776e-01
3.060452e-01
2.819914e-01
2.567953e-01
2.306292e-01
2.036298e-01
1.758955e-01
1.475351e-01
1.186443e-01
8.933349e-02
5.970984e-02
2.989110e-02
3.845856e-01
3.680402e-01
3.493519e-01
3.285010e-01
3.058301e-01
2.817683e-01
2.565640e-01
2.304050e-01
2.034025e-01
1.756759e-01
1.473185e-01
1.184480e-01
8.916342e-02
5.958549e-02
2.982937e-02
3.844901e-01
3.678799e-01
3.490953e-01
3.281288e-01
3.053995e-01
2.813026e-01
2.560989e-01
2.299306e-01
2.029313e-01
1.751967e-01
1.468575e-01
1.180111e-01
8.878441e-02
5.928791e-02
2.966000e-02
3.845031e-01
3.676258e-01
3.485490e-01
3.273924e-01
3.045529e-01
2.804313e-01
2.552066e-01
2.290283e-01
2.019990e-01
1.742639e-01
1.459342e-01
1.679499e-01
1.506034e-01
1.325681e-01
1.133629e-01
9.351760e-02
7.365205e-02
5.100269e-02
2.685719e-02
1.171526e-01
8.801943e-02
5.868107e-02
2.929944e-02
3.841543e-01
3.668667e-01
3.474155e-01
3.260009e-01
3.030834e-01
2.789368e-01
2.536803e-01
2.274274e-01
2.003488e-01
1.725806e-01
1.442970e-01
1.156050e-01
8.665302e-02
5.758182e-02
2.866299e-02
3.833715e-01
3.653231e-01
3.453222e-01
3.236987e-01
3.008216e-01
2.766760e-01
2.512569e-01
2.248283e-01
1.976297e-01
1.698564e-01
1.416435e-01
1.130799e-01
8.438371e-02
1.852410e-01
5.578277e-02
2.771943e-02
3.820088e-01
3.623581e-01
3.417656e-01
3.204130e-01
2.979414e-01
2.735598e-01
2.476276e-01
2.207991e-01
1.935060e-01
1.658564e-01
1.378473e-01
1.091360e-01
8.070536e-02
5.313933e-02
2.683933e-02
3.805918e-01
3.653923e-01
3.419761e-01
3.150178e-01
3.792112e-01
3.557483e-01
3.363376e-01
3.176057e-01
2.949423e-01
2.693406e-01
2.422079e-01
2.147032e-01
1.876350e-01
1.609026e-01
1.334416e-01
1.023993e-01
7.370105e-02
5.174781e-02
2.735522e-02
2.267573e-02
2.807871e-02
4.730465e-02
2.210804e-02
1.554602e-01
1.395865e-01
1.225026e-01
1.043029e-01
8.530102e-02
6.640707e-02
5.041672e-02
2.495781e-02
3.743025e-02
5.631563e-02
7.340767e-02
2.776298e-02
4.800809e-02
6.620384e-02
8.395567e-02
1.002894e-01
3.705101e-02
5.686095e-02
7.604777e-02
9.437475e-02
1.116425e-01
1.272902e-01
3.356784e-01
3.356784e-01
3.356784e-01
3.356784e-01
3.356784e-01
3.356784e-01
3.356784e-01
3.356784e-01
3.356784e-01
3.356784e-01
3.356784e-01
3.356784e-01
3.356784e-01
3.356784e-01
3.356784e-01
3.356784e-01
3.356784e-01
3.356784e-01
3.356784e-01
3.356784e-01
3.356784e-01
3.356784e-01
3.356784e-01
3.356784e-01
3.356784e-01
3.356784e-01
3.356784e-01
3.356784e-01
3.356784e-01
3.356784e-01
3.356784e-01
3.356784e-01
3.356784e-01
3.572698e-01
3.787840e-01
3.679504e-01
3.570052e-01
3.782822e-01
3.570848e-01
3.783670e-01
3.571027e-01
3.783906e-01
3.576594e-01
3.792495e-01
3.684789e-01
3.673729e-01
3.572702e-01
3.784671e-01
3.571277e-01
3.783860e-01
3.569261e-01
3.779453e-01
3.731798e-01
3.551109e-01
3.783256e-01
3.571726e-01
3.783770e-01
3.584096e-01
3.772994e-01
3.566082e-01
3.807743e-01
3.552721e-01
3.778778e-01
3.569401e-01
3.781429e-01
3.569509e-01
3.781580e-01
3.570598e-01
3.783461e-01
3.570943e-01
3.783777e-01
3.571253e-01
3.784312e-01
3.572268e-01
3.785854e-01
3.597220e-01
3.817839e-01
3.549758e-01
3.778999e-01
3.588731e-01
3.809810e-01
3.575210e-01
3.792951e-01
3.537993e-01
3.775319e-01
3.784148e-01
3.571401e-01
3.573484e-01
3.786256e-01
3.573060e-01
3.784782e-01
3.571621e-01
3.784221e-01
-6.938894e-18
-6.938894e-18
-6.938894e-18
-6.938894e-18
-6.938894e-18
-6.938894e-18
-6.938894e-18
-6.938894e-18
-6.938894e-18
-6.938894e-18
-6.938894e-18
-6.938894e-18
-6.938894e-18
-6.938894e-18
-6.938894e-18
-6.938894e-18
-6.938894e-18
-6.938894e-18
-6.938894e-18
-6.938894e-18
-6.938894e-18
-6.938894e-18
-6.938894e-18
-6.938894e-18
-6.938894e-18
-6.938894e-18
-6.938894e-18
-6.938894e-18
-6.938894e-18
-6.938894e-18
-6.938894e-18
-6.938894e-18
-6.938894e-18
1.655844e-01
2.203266e-01
2.159765e-01
1.739512e-01
1.881165e-01
1.588249e-01
5.778594e-02
2.713850e-01
1.303056e-01
8.290406e-02
8.672113e-02
1.109578e-01
1.018407e-01
1.280883e-01
1.438730e-01
1.236718e-01
1.404465e-01
1.596593e-01
1.647040e-01
1.739043e-01
1.665147e-01
1.898148e-01
3.758850e-02
2.386865e-02
1.967628e-01
1.920432e-01
1.917659e-01
1.983199e-01
2.369471e-01
2.148320e-01
2.306759e-01
2.502397e-01
2.446920e-01
2.549094e-01
2.782860e-01
1.822731e-01
2.056877e-01
2.303232e-01
2.447831e-01
2.468006e-01
2.453654e-01
2.497058e-01
1.522853e-01
1.826219e-01
2.075297e-01
1.814633e-01
2.055912e-01
2.320480e-01
2.506120e-01
6.880799e-02
5.139558e-02
3.002121e-02
2.536487e-01
2.971663e-01
2.771631e-01
2.758837e-01
2.328594e-01
2.492832e-01
2.540964e-01
2.101193e-01
2.162536e-01
2.257681e-01
2.339950e-01
1.843889e-01
1.938498e-01
2.054119e-01
2.156599e-01
4.408697e-02
6.844164e-02
1.115622e-01
1.108319e-01
1.540869e-01
1.564737e-01
1.405258e-01
1.281737e-01
2.000236e-01
1.754772e-01
1.458878e-01
2.079537e-02
2.037920e-02
1.965288e-02
2.041392e-02
2.173829e-02
2.068456e-02
2.171616e-02
2.207035e-02
1.007212e-01
8.276983e-02
6.364729e-02
4.195241e-02
2.418138e-02
1.827219e-02
1.544314e-02
1.918569e-02
1.743240e-02
2.355708e-02
6.337150e-02
3.460227e-02
3.728151e-02
5.286408e-02
7.165243e-02
8.971083e-02
2.352791e-02
4.306138e-02
6.448720e-02
8.343115e-02
1.024908e-01
1.181794e-01
2.865536e-02
5.252207e-02
7.381238e-02
9.375384e-02
1.135687e-01
1.362287e-01
1.439941e-01
3.191293e-01
3.004762e-01
3.182774e-01
2.629749e-01
2.812957e-01
2.995356e-01
3.175493e-01
2.411784e-01
2.606650e-01
2.793223e-01
2.974606e-01
1.326460e-01
1.146034e-01
9.616494e-02
7.733020e-02
4.895820e-02
2.875177e-02
3.158462e-01
3.516215e-02
6.320913e-02
9.394788e-02
1.253065e-01
1.591666e-01
1.899208e-01
2.189305e-01
2.443966e-01
2.688039e-01
2.963097e-01
3.135787e-01
1.915111e-01
2.166141e-01
2.385842e-01
2.577962e-01
2.756010e-01
2.930972e-01
3.114713e-01
3.188261e-01
2.564149e-01
2.856751e-01
3.073482e-01
1.372549e-01
1.697344e-01
1.937493e-01
2.194490e-01
3.878891e-02
6.575348e-02
1.000111e-01
3.443413e-02
7.191298e-02
1.055229e-01
1.337882e-01
1.668647e-01
1.931721e-01
2.146230e-01
2.390365e-01
2.644782e-01
2.889845e-01
3.125590e-01
2.687303e-01
2.921623e-01
3.146552e-01
1.349059e-01
1.685231e-01
1.937820e-01
2.217738e-01
3.042653e-02
5.764142e-02
9.594258e-02
3.723448e-02
7.756094e-02
1.979859e-01
2.225275e-01
2.413117e-01
2.598071e-01
2.785734e-01
2.974934e-01
3.143202e-01
3.259258e-01
1.072350e-01
1.272521e-01
1.554039e-01
1.943007e-01
2.260865e-01
2.474696e-01
2.707310e-01
2.937047e-01
3.154785e-01
2.710892e-01
2.942198e-01
3.157730e-01
1.234331e-01
1.549096e-01
1.873292e-01
2.178515e-01
3.740263e-02
6.771251e-02
9.808455e-02
3.174702e-02
6.466673e-02
9.805336e-02
1.288112e-01
1.623397e-01
1.901339e-01
2.199449e-01
2.459773e-01
2.710134e-01
2.943951e-01
3.158980e-01
2.711774e-01
1.642522e-01
2.946511e-01
3.160558e-01
3.537947e-02
7.052936e-02
1.021333e-01
1.318087e-01
1.599715e-01
1.851046e-01
2.149228e-01
2.465563e-01
2.720089e-01
2.951958e-01
3.163392e-01
1.400622e-01