VARIABLES = "X" "Y" "Z" "FREF"
ZONE T="instant 010"
Nodes=3151, Elements=6298
ZONETYPE=FETriangle
DATAPACKING=BLOCK
VARLOCATION = ([1-3]=NODAL, [4]=CELLCENTERED)
5.000000e-01
6.930607e-02
9.334509e-02
1.164036e-01
1.383088e-01
1.637395e-01
1.907594e-01
2.187144e-01
2.473433e-01
2.760975e-01
3.044113e-01
3.312499e-01
3.563564e-01
3.803760e-01
4.022085e-01
4.209810e-01
4.364632e-01
4.483063e-01
4.589609e-01
4.696644e-01
4.789250e-01
4.863462e-01
4.918974e-01
4.959222e-01
4.984461e-01
4.997047e-01
5.100000e-02
5.100000e-02
5.100000e-02
5.100000e-02
5.100000e-02
5.100000e-02
5.100000e-02
5.100000e-02
5.100000e-02
5.100000e-02
5.100000e-02
5.100000e-02
2.005372e-01
1.992833e-01
1.968141e-01
1.931811e-01
1.888397e-01
1.847112e-01
1.795006e-01
1.729760e-01
1.656731e-01
1.583311e-01
1.503313e-01
1.410788e-01
1.325128e-01
1.239226e-01
1.149865e-01
1.035748e-01
9.260775e-02
8.383145e-02
7.365424e-02
6.243629e-02
2.010000e-01
4.768840e-01
4.458259e-01
4.196285e-01
3.925384e-01
3.573759e-01
3.230387e-01
2.942254e-01
2.670999e-01
2.398089e-01
2.171967e-01
2.831693e-01
1.038774e-01
9.031879e-02
2.959974e-01
2.749820e-01
1.044204e-01
1.180847e-01
9.592476e-02
1.243880e-01
7.540541e-02
1.294481e-01
1.117664e-01
1.357069e-01
1.518601e-01
4.790632e-01
1.721910e-01
1.955901e-01
1.618061e-01
1.765939e-01
2.046100e-01
2.306587e-01
2.669537e-01
2.460097e-01
2.566819e-01
2.818886e-01
3.134384e-01
2.873585e-01
4.694645e-01
4.537353e-01
3.030073e-01
3.329201e-01
3.273910e-01
3.537849e-01
3.557447e-01
3.674089e-01
2.174002e-01
2.582255e-01
2.389592e-01
2.133177e-01
9.511895e-02
7.814698e-02
6.992931e-02
7.243428e-02
7.287864e-02
9.431068e-02
1.158619e-01
7.389124e-02
9.587950e-02
1.182026e-01
1.409563e-01
6.339147e-02
7.809663e-02
9.791032e-02
1.205079e-01
4.745935e-01
1.432622e-01
1.667929e-01
1.685957e-01
1.930965e-01
1.722987e-01
1.930046e-01
2.191715e-01
7.318084e-02
9.680575e-02
1.211118e-01
1.470051e-01
1.271871e-01
1.272181e-01
1.412290e-01
1.574600e-01
1.900415e-01
2.114140e-01
2.253878e-01
2.447869e-01
7.099567e-02
9.291902e-02
1.172989e-01
1.452651e-01
1.689970e-01
1.890890e-01
2.127530e-01
1.870530e-01
2.064484e-01
2.148467e-01
2.334906e-01
2.529489e-01
2.765083e-01
1.474275e-01
1.667959e-01
1.886430e-01
2.344639e-01
4.664413e-01
4.503428e-01
4.361797e-01
4.193843e-01
2.566210e-01
2.789333e-01
3.038975e-01
1.511473e-01
2.106648e-01
2.333371e-01
2.583164e-01
2.800744e-01
3.032532e-01
3.288855e-01
1.702547e-01
1.922169e-01
2.187777e-01
2.341877e-01
2.577621e-01
2.859061e-01
4.578727e-01
4.389206e-01
4.216505e-01
4.040968e-01
3.833562e-01
3.023146e-01
3.254196e-01
3.518053e-01
2.511369e-01
2.794264e-01
3.172655e-01
3.447391e-01
3.727284e-01
1.704066e-01
1.914007e-01
2.154117e-01
2.429870e-01
3.077260e-01
3.363027e-01
3.640932e-01
3.921646e-01
2.727102e-01
3.014997e-01
3.286954e-01
3.562603e-01
3.829495e-01
4.101787e-01
3.872263e-01
4.081548e-01
1.875145e-01
2.109728e-01
2.366888e-01
2.654071e-01
2.965708e-01
3.257561e-01
3.487980e-01
3.770902e-01
4.010265e-01
4.275561e-01
3.084359e-01
3.244315e-01
4.485162e-01
4.285261e-01
4.099300e-01
3.918832e-01
3.730226e-01
3.533093e-01
3.335781e-01
3.431241e-01
3.624660e-01
3.808081e-01
3.985204e-01
4.180814e-01
4.383493e-01
5.100000e-02
4.995858e-01
4.975584e-01
4.939984e-01
4.888921e-01
4.809019e-01
4.714998e-01
4.597757e-01
4.456396e-01
4.277054e-01
4.078241e-01
3.890883e-01
3.680218e-01
3.437499e-01
3.182798e-01
2.961419e-01
2.766279e-01
2.562826e-01
2.319199e-01
2.053633e-01
1.789222e-01
1.531624e-01
1.283325e-01
1.050702e-01
8.390146e-02
6.559823e-02
5.000000e-01
2.167129e-01
2.390132e-01
2.678254e-01
2.999200e-01
3.301944e-01
3.595338e-01
3.880465e-01
4.194710e-01
4.527834e-01
4.801298e-01
2.010000e-01
6.071765e-02
7.044271e-02
8.177079e-02
9.393385e-02
1.049674e-01
1.151615e-01
1.253801e-01
1.351777e-01
1.438998e-01
1.509373e-01
1.589740e-01
1.662726e-01
1.723619e-01
1.775240e-01
1.824271e-01
1.879600e-01
1.923068e-01
1.950392e-01
1.973239e-01
1.992975e-01
2.005928e-01
5.100000e-02
5.100000e-02
5.100000e-02
5.100000e-02
5.100000e-02
5.100000e-02
5.100000e-02
5.100000e-02
5.100000e-02
5.100000e-02
5.100000e-02
2.713241e-01
3.243037e-01
9.866064e-02
1.311366e-01
1.264310e-01
2.210590e-01
2.339548e-01
2.492332e-01
2.543893e-01
2.828003e-01
2.844635e-01
2.959775e-01
2.780594e-01
3.783750e-01
6.977532e-02
3.471020e-01
3.191799e-01
3.584024e-01
2.973931e-01
3.441692e-01
3.240962e-01
3.700939e-01
3.517455e-01
7.442450e-02
1.166933e-01
9.974110e-02
9.063504e-02
7.569260e-02
1.179996e-01
1.539851e-01
1.210043e-01
1.616042e-01
1.493858e-01
1.839851e-01
1.691341e-01
2.030945e-01
2.258294e-01
7.445444e-02
2.188855e-01
7.156043e-02
8.053671e-02
9.534171e-02
2.089710e-01
2.301215e-01
2.508487e-01
4.704143e-01
4.389324e-01
4.562629e-01
4.699340e-01
3.947699e-01
4.097198e-01
4.246297e-01
4.401272e-01
1.124273e-01
9.716855e-02
7.376889e-02
4.588289e-01
3.934468e-01
4.080061e-01
4.239392e-01
4.500057e-01
3.735836e-01
3.802571e-01
4.232804e-01
4.379209e-01
2.154218e-01
2.290534e-01
2.477388e-01
3.601824e-01
3.820675e-01
4.156332e-01
3.140568e-01
3.486842e-01
3.613647e-01
3.761840e-01
3.891039e-01
3.981142e-01
4.057961e-01
1.955969e-01
2.696159e-01
2.998692e-01
3.350891e-01
3.539163e-01
3.778576e-01
4.036878e-01
2.040527e-01
2.185138e-01
2.372071e-01
3.236539e-01
3.462905e-01
1.357990e-01
1.201293e-01
3.674360e-01
3.886238e-01
1.800917e-01
2.603779e-01
2.886526e-01
3.195075e-01
3.353937e-01
3.535414e-01
3.715405e-01
1.900466e-01
2.049795e-01
2.237033e-01
3.039695e-01
3.215346e-01
3.371810e-01
3.527917e-01
2.448246e-01
1.594593e-01
1.403677e-01
1.190221e-01
9.662157e-02
7.365071e-02
2.670445e-01
2.940576e-01
3.052748e-01
3.188027e-01
3.321398e-01
1.608904e-01
1.727181e-01
1.897184e-01
2.075706e-01
2.737616e-01
2.864298e-01
2.991945e-01
3.101844e-01
2.243848e-01
2.399622e-01
2.539299e-01
2.682599e-01
2.794655e-01
2.875174e-01
7.476906e-02
9.949787e-02
1.323389e-01
1.587211e-01
1.845275e-01
2.102935e-01
2.343088e-01
1.393843e-01
1.520429e-01
1.774952e-01
1.874970e-01
2.027128e-01
2.197459e-01
2.367560e-01
2.532471e-01
2.573413e-01
2.627140e-01
1.842319e-01
1.638380e-01
1.434564e-01
1.224159e-01
9.960345e-02
7.497164e-02
1.919865e-01
2.117512e-01
2.345931e-01
1.500526e-01
1.688307e-01
1.880841e-01
2.094838e-01
5.000000e-01
5.000000e-01
5.000000e-01
5.000000e-01
5.000000e-01
5.000000e-01
5.000000e-01
5.000000e-01
5.000000e-01
5.000000e-01
5.000000e-01
5.000000e-01
5.000000e-01
5.000000e-01
5.000000e-01
5.000000e-01
5.000000e-01
5.000000e-01
5.000000e-01
5.000000e-01
5.000000e-01
5.000000e-01
5.000000e-01
5.000000e-01
5.000000e-01
5.000000e-01
5.000000e-01
5.000000e-01
5.000000e-01
5.000000e-01
5.000000e-01
5.000000e-01
5.000000e-01
5.100000e-02
5.100000e-02
5.100000e-02
5.100000e-02
5.100000e-02
5.100000e-02
5.100000e-02
5.100000e-02
5.100000e-02
5.100000e-02
5.100000e-02
5.100000e-02
5.100000e-02
5.100000e-02
5.100000e-02
5.100000e-02
5.100000e-02
5.100000e-02
5.100000e-02
5.100000e-02
5.100000e-02
5.100000e-02
5.100000e-02
5.100000e-02
5.100000e-02
5.100000e-02
5.100000e-02
5.100000e-02
5.100000e-02
5.100000e-02
5.100000e-02
5.100000e-02
5.100000e-02
3.396750e-01
3.550748e-01
3.475484e-01
3.621295e-01
3.769024e-01
3.820189e-01
3.555891e-01
3.675332e-01
2.868749e-01
3.017103e-01
3.129740e-01
3.150780e-01
3.254567e-01
3.332225e-01
3.431113e-01
3.757133e-01
3.533026e-01
3.408162e-01
3.629368e-01
3.841623e-01
3.288690e-01
3.295228e-01
7.838648e-02
6.748342e-02
3.489637e-01
3.705723e-01
3.914840e-01
3.678455e-01
3.823117e-01
3.964551e-01
3.873954e-01
4.004032e-01
4.048672e-01
4.299766e-01
3.635438e-01
3.798868e-01
3.548721e-01
3.882259e-01
3.665861e-01
3.442167e-01
3.958636e-01
3.747240e-01
3.555616e-01
3.357826e-01
3.945258e-01
4.101237e-01
4.057510e-01
3.898742e-01
3.773282e-01
1.017560e-01
8.747820e-02
7.163598e-02
3.277393e-01
3.429862e-01
3.558101e-01
3.173487e-01
3.318004e-01
3.065639e-01
7.009782e-02
8.541674e-02
8.979668e-02
1.060353e-01
1.116278e-01
1.252086e-01
1.299369e-01
1.355056e-01
1.363508e-01
1.471556e-01
1.544340e-01
1.606834e-01
1.618115e-01
1.719973e-01
1.799296e-01
1.865706e-01
1.781739e-01
1.888021e-01
1.981282e-01
2.059874e-01
2.126680e-01
1.957245e-01
2.059042e-01
2.157254e-01
2.244783e-01
2.320059e-01
2.384758e-01
2.115233e-01
1.253543e-01
1.104885e-01
9.505346e-02
7.955874e-02
6.876914e-02
2.224789e-01
2.328056e-01
2.422168e-01
2.504682e-01
2.574784e-01
2.635395e-01
2.373215e-01
2.488840e-01
2.591131e-01
2.680840e-01
2.758001e-01
2.819561e-01
2.874243e-01
2.516585e-01
2.637785e-01
2.750755e-01
2.847392e-01
2.931480e-01
3.005426e-01
3.047304e-01
3.097051e-01
2.645710e-01
2.772672e-01
2.896230e-01
3.010583e-01
3.090528e-01
3.172547e-01
3.266033e-01
3.235685e-01
3.311502e-01
3.439428e-01
3.998591e-01
3.173551e-01
3.374358e-01
3.600822e-01
1.499530e-01
1.350139e-01
1.194459e-01
1.040766e-01
9.021661e-02
7.758853e-02
3.828536e-01
3.039503e-01
3.265843e-01
3.505171e-01
3.737997e-01
3.930544e-01
4.095967e-01
3.520404e-01
3.662109e-01
3.721385e-01
3.808627e-01
3.879683e-01
3.961469e-01
4.042629e-01
4.121773e-01
4.128181e-01
4.163890e-01
4.202361e-01
4.241249e-01
4.271991e-01
4.305828e-01
3.951329e-01
4.063296e-01
4.148754e-01
4.228554e-01
4.305488e-01
4.365296e-01
4.401412e-01
4.104144e-01
4.157216e-01
4.236073e-01
4.324924e-01
4.394150e-01
4.445575e-01
4.487086e-01
4.266010e-01
4.415385e-01
4.398117e-01
4.499923e-01
4.527477e-01
4.565322e-01
4.606641e-01
4.638597e-01
4.394898e-01
4.556756e-01
4.645454e-01
4.701503e-01
4.519211e-01
4.651947e-01
4.708447e-01
4.755334e-01
4.716998e-01
4.810719e-01
1.760382e-01
1.606640e-01
1.448428e-01
1.289833e-01
1.136486e-01
9.879522e-02
8.239523e-02
6.988021e-02
4.781802e-01
4.861825e-01
4.806026e-01
4.872046e-01
4.938402e-01
4.976260e-01
4.945600e-01
4.904941e-01
4.900508e-01
4.856020e-01
4.838657e-01
4.845831e-01
4.762379e-01
4.770358e-01
4.782109e-01
4.797460e-01
4.673400e-01
4.678933e-01
4.691497e-01
4.708926e-01
4.729722e-01
4.570907e-01
4.583790e-01
4.603320e-01
4.627366e-01
4.654020e-01
4.539223e-01
4.571753e-01
4.442730e-01
4.458186e-01
4.479959e-01
4.507772e-01
4.298159e-01
4.314482e-01
4.337810e-01
4.369646e-01
4.407651e-01
4.446762e-01
4.483692e-01
4.144730e-01
4.154763e-01
4.175978e-01
4.210610e-01
4.256540e-01
4.308067e-01
4.351390e-01
4.387679e-01
3.800310e-01
3.803777e-01
3.982558e-01
3.994652e-01
4.026370e-01
4.082103e-01
4.146717e-01
4.221023e-01
4.236717e-01
4.285423e-01
3.791776e-01
3.951709e-01
3.670522e-01
1.184846e-01
1.525512e-01
1.320806e-01
1.581056e-01
1.472075e-01
1.848172e-01
1.756110e-01
1.643662e-01
2.197403e-01
2.047785e-01
2.031026e-01
1.871608e-01
1.710214e-01
1.548009e-01
1.386986e-01
1.228062e-01
1.069564e-01
9.209435e-02
7.855351e-02
1.929934e-01
1.816484e-01
2.493708e-01
2.352003e-01
2.219500e-01
2.100307e-01
1.987982e-01
2.647194e-01
2.509078e-01
2.383633e-01
2.267626e-01
2.157604e-01
2.933043e-01
2.790805e-01
2.662286e-01
2.543980e-01
2.432521e-01
2.325143e-01
3.200397e-01
3.060698e-01
2.931563e-01
2.813220e-01
2.702386e-01
2.595532e-01
2.490259e-01
3.439984e-01
3.317990e-01
3.188283e-01
3.071559e-01
2.963722e-01
2.860246e-01
2.756697e-01
2.651942e-01
3.633788e-01
3.582651e-01
3.429214e-01
3.316095e-01
3.212183e-01
3.116473e-01
3.018496e-01
2.914525e-01
2.808096e-01
4.197194e-01
4.057302e-01
3.883420e-01
3.684728e-01
3.454803e-01
3.207268e-01
2.955561e-01
4.009848e-01
3.825006e-01
3.609549e-01
3.339208e-01
3.089379e-01
6.968867e-02
6.927916e-02
7.274487e-02
9.065659e-02
8.634517e-02
9.811362e-02
1.135201e-01
7.110909e-02
8.930114e-02
1.060658e-01
1.215437e-01
1.376595e-01
7.369364e-02
9.313037e-02
1.114544e-01
1.289399e-01
1.460793e-01
1.629838e-01
2.306540e-01
2.141061e-01
1.976614e-01
1.812187e-01
1.647804e-01
1.483537e-01
1.319877e-01
1.159373e-01
1.002452e-01
8.331340e-02
6.957066e-02
6.779762e-02
8.005706e-02
9.809331e-02
1.168685e-01
1.354292e-01
1.536960e-01
1.717102e-01
1.892260e-01
6.603045e-02
7.153204e-02
8.829309e-02
1.046012e-01
1.227902e-01
1.416582e-01
1.606128e-01
1.794459e-01
1.980986e-01
2.163122e-01
7.734726e-02
9.398391e-02
1.113817e-01
1.291908e-01
1.478352e-01
1.670132e-01
1.863457e-01
2.055904e-01
2.248441e-01
2.452121e-01
2.669017e-01
6.804741e-02
8.389744e-02
9.960147e-02
1.174669e-01
1.357877e-01
1.540142e-01
1.728832e-01
1.925057e-01
2.121075e-01
2.314436e-01
2.506793e-01
2.697914e-01
2.858182e-01
6.927117e-02
8.729503e-02
1.038988e-01
1.224769e-01
1.423580e-01
1.608247e-01
1.781728e-01
1.976193e-01
2.179271e-01
2.373730e-01
2.565232e-01
2.751245e-01
2.929465e-01
3.069082e-01
6.068428e-02
7.136402e-02
8.844814e-02
1.095271e-01
1.239895e-01
1.479558e-01
1.686687e-01
1.858437e-01
1.996409e-01
2.232190e-01
2.427325e-01
2.618496e-01
2.807961e-01
2.980420e-01
3.182859e-01
3.272607e-01
2.582246e-01
2.409952e-01
2.243235e-01
2.078534e-01
1.913555e-01
1.747355e-01
1.580387e-01
1.413507e-01
1.247363e-01
1.080497e-01
9.175203e-02
7.443571e-02
4.990035e-01
4.996561e-01
4.966754e-01
4.984170e-01
4.995707e-01
4.930863e-01
4.959987e-01
4.981269e-01
4.995047e-01
4.837740e-01
4.885089e-01
4.924151e-01
4.955499e-01
4.979221e-01
4.994519e-01
4.660414e-01
4.762950e-01
4.827172e-01
4.876799e-01
4.917989e-01
4.951615e-01
4.977278e-01
4.993951e-01
4.700263e-01
4.761400e-01
4.818245e-01
4.868551e-01
4.911702e-01
4.947357e-01
4.974860e-01
4.993112e-01
4.547668e-01
4.616640e-01
4.683115e-01
4.747965e-01
4.806911e-01
4.859142e-01
4.904222e-01
4.941694e-01
4.970947e-01
4.991172e-01
4.996282e-01
4.418811e-01
4.511776e-01
4.591254e-01
4.664883e-01
4.732639e-01
4.793689e-01
4.847715e-01
4.894359e-01
4.933060e-01
4.962805e-01
4.981894e-01
4.994931e-01
4.162635e-01
4.285025e-01
4.392823e-01
4.485370e-01
4.568885e-01
4.645477e-01
4.715170e-01
4.777802e-01
4.833183e-01
4.881006e-01
4.920871e-01
4.952424e-01
4.976921e-01
4.993710e-01
3.822386e-01
4.001202e-01
4.145300e-01
4.264399e-01
4.366985e-01
4.459986e-01
2.854655e-01
2.672830e-01
2.504307e-01
2.342540e-01
2.180015e-01
2.014851e-01
1.847370e-01
1.678336e-01
1.508422e-01
1.337832e-01
1.168495e-01
1.000534e-01
8.425074e-02
4.545411e-01
4.623518e-01
4.694394e-01
4.758103e-01
4.814449e-01
4.863520e-01
4.905857e-01
4.941984e-01
4.972082e-01
4.992354e-01
7.105246e-02
9.250579e-02
1.156449e-01
1.403126e-01
1.660539e-01
1.922638e-01
2.184502e-01
2.441747e-01
2.690772e-01
2.929116e-01
3.157006e-01
3.376204e-01
3.586444e-01
3.790331e-01
3.979809e-01
4.150696e-01
4.304448e-01
4.448803e-01
4.591273e-01
4.682394e-01
4.769842e-01
4.861608e-01
4.922998e-01
4.969692e-01
3.667423e-01
3.866444e-01
4.001245e-01
4.130009e-01
4.237345e-01
4.338171e-01
4.432364e-01
4.518813e-01
4.597411e-01
4.669016e-01
4.733383e-01
4.789961e-01
4.840693e-01
4.887147e-01
4.927213e-01
4.968932e-01
4.988027e-01
7.236704e-02
9.494753e-02
1.190468e-01
1.444730e-01
1.707380e-01
1.972606e-01
2.235862e-01
2.493418e-01
2.742644e-01
2.982219e-01
3.211983e-01
3.431854e-01
3.641393e-01
3.839314e-01
4.022843e-01
4.191327e-01
4.345315e-01
4.485695e-01
4.607184e-01
4.711562e-01
4.802972e-01
4.880488e-01
4.940454e-01
4.982400e-01
7.352533e-02
9.710750e-02
1.220735e-01
1.482044e-01
1.749681e-01
2.018051e-01
2.283004e-01
2.541414e-01
2.791264e-01
3.031474e-01
3.261461e-01
3.480603e-01
3.688001e-01
3.882447e-01
4.062832e-01
4.228692e-01
4.379651e-01
4.514843e-01
4.633557e-01
4.736915e-01
4.824970e-01
4.897019e-01
4.951772e-01
4.987257e-01
7.458856e-02
9.911240e-02
1.249336e-01
1.517598e-01
1.790125e-01
2.061540e-01
2.328146e-01
2.587346e-01
2.837513e-01
3.123912e-01
2.926341e-01
2.750769e-01
2.599257e-01
2.443435e-01
2.282260e-01
2.116911e-01
1.948561e-01
1.778148e-01
1.606328e-01
1.433766e-01
1.261666e-01
1.090289e-01
9.055859e-02
7.479792e-02
3.077690e-01
3.307153e-01
3.525067e-01
3.730449e-01
3.922335e-01
4.099986e-01
4.262845e-01
4.410350e-01
4.542047e-01
4.657887e-01
4.757965e-01
4.841917e-01
4.909175e-01
4.958831e-01
4.989566e-01
7.556431e-02
1.011437e-01
1.279116e-01
1.554550e-01
1.831751e-01
2.105842e-01
2.373682e-01
2.633187e-01
2.883128e-01
3.122810e-01
3.351484e-01
3.568114e-01
3.771597e-01
3.961028e-01
4.135808e-01
4.295405e-01
4.439399e-01
4.567578e-01
4.679849e-01
4.775964e-01
4.855570e-01
4.918299e-01
4.963610e-01
4.990937e-01
7.673922e-02
1.036147e-01
1.314228e-01
1.596552e-01
1.877756e-01
2.153856e-01
2.422100e-01
2.680997e-01
2.930038e-01
3.169100e-01
3.397113e-01
3.612516e-01
3.814012e-01
4.000653e-01
4.172107e-01
4.327933e-01
4.468020e-01
4.592250e-01
4.700421e-01
4.792104e-01
4.867236e-01
4.925746e-01
4.967351e-01
4.991970e-01
7.869534e-02
1.071219e-01
1.359404e-01
1.646837e-01
1.931105e-01
2.208616e-01
2.475638e-01
2.732038e-01
2.979581e-01
3.218985e-01
3.446837e-01
3.660886e-01
3.860197e-01
4.043294e-01
4.210455e-01
4.361411e-01
4.497306e-01
4.617280e-01
4.720722e-01
4.807227e-01
4.877811e-01
4.932566e-01
4.970873e-01
4.992983e-01
8.200017e-02
1.124524e-01
1.417923e-01
1.706056e-01
1.994963e-01
2.274294e-01
2.535477e-01
2.783909e-01
3.032358e-01
3.276360e-01
3.503399e-01
3.715005e-01
3.913075e-01
4.091333e-01
4.251265e-01
4.395010e-01
4.529037e-01
4.644641e-01
4.741375e-01
4.820993e-01
4.887681e-01
4.939769e-01
3.387112e-01
3.187774e-01
2.962172e-01
2.844449e-01
2.701422e-01
2.546960e-01
2.385773e-01
2.220207e-01
2.051664e-01
1.880976e-01
1.708705e-01
1.535456e-01
1.362340e-01
1.192310e-01
1.030468e-01
8.633365e-02
4.975028e-01
4.994222e-01
8.908595e-02
1.215413e-01
1.476391e-01
1.772640e-01
2.076618e-01
2.360065e-01
2.599167e-01
2.804973e-01
3.099967e-01
3.347944e-01
3.567456e-01
3.772441e-01
3.981749e-01
4.151751e-01
4.283603e-01
4.425651e-01
4.570850e-01
4.679759e-01
4.756669e-01
4.831748e-01
4.896607e-01
4.949406e-01
4.981429e-01
4.995249e-01
4.994804e-01
4.991966e-01
4.977126e-01
4.995037e-01
4.985803e-01
4.967943e-01
4.945071e-01
4.991852e-01
4.976574e-01
4.955827e-01
4.928861e-01
4.897576e-01
4.984893e-01
4.966401e-01
4.941320e-01
4.910287e-01
4.874019e-01
4.833648e-01
4.992566e-01
4.971189e-01
4.952906e-01
4.924914e-01
4.889725e-01
4.848655e-01
4.802729e-01
4.752477e-01
4.655232e-01
4.989699e-01
4.967988e-01
4.939328e-01
4.907151e-01
4.867742e-01
4.821851e-01
4.770566e-01
4.714888e-01
4.545429e-01
4.994680e-01
4.983943e-01
4.960564e-01
4.928144e-01
4.889477e-01
4.845038e-01
4.794131e-01
4.737366e-01
4.675925e-01
4.611333e-01
4.423764e-01
4.991745e-01
4.975021e-01
4.950182e-01
4.915154e-01
4.872011e-01
4.822195e-01
4.766018e-01
4.703682e-01
4.635991e-01
4.564698e-01
4.492714e-01
4.986079e-01
4.966465e-01
4.938041e-01
4.900373e-01
4.853654e-01
4.799197e-01
4.737875e-01
4.670076e-01
4.596216e-01
4.517114e-01
4.435953e-01
4.357864e-01
4.282803e-01
4.115721e-01
4.993890e-01
4.975063e-01
4.956120e-01
4.925507e-01
4.884714e-01
4.834510e-01
4.775852e-01
4.709787e-01
4.636910e-01
4.557473e-01
4.471678e-01
4.378178e-01
4.287255e-01
4.207847e-01
3.470731e-01
3.630855e-01
4.991886e-01
4.975105e-01
4.947699e-01
4.913654e-01
4.869435e-01
4.815377e-01
4.752436e-01
4.681759e-01
4.604242e-01
4.519946e-01
4.428920e-01
4.331971e-01
4.201654e-01
4.123285e-01
4.057559e-01
3.881065e-01
5.100000e-02
5.100000e-02
5.100000e-02
5.100000e-02
5.100000e-02
5.100000e-02
5.100000e-02
5.100000e-02
5.100000e-02
5.100000e-02
5.100000e-02
5.100000e-02
5.100000e-02
5.100000e-02
5.100000e-02
5.100000e-02
5.100000e-02
5.100000e-02
5.100000e-02
5.100000e-02
5.100000e-02
5.100000e-02
5.100000e-02
5.100000e-02
5.100000e-02
5.100000e-02
5.100000e-02
5.100000e-02
5.100000e-02
5.100000e-02
5.100000e-02
5.100000e-02
5.100000e-02
5.100000e-02
5.100000e-02
5.100000e-02
5.100000e-02
5.100000e-02
5.100000e-02
5.100000e-02
5.100000e-02
5.100000e-02
5.100000e-02
5.100000e-02
5.100000e-02
5.100000e-02
5.100000e-02
5.100000e-02
5.100000e-02
5.100000e-02
5.100000e-02
5.100000e-02
5.100000e-02
5.100000e-02
5.100000e-02
5.100000e-02
5.100000e-02
5.100000e-02
5.100000e-02
5.100000e-02
5.100000e-02
5.100000e-02
5.100000e-02
5.100000e-02
5.100000e-02
5.100000e-02
5.100000e-02
5.100000e-02
5.100000e-02
5.100000e-02
5.100000e-02
5.100000e-02
5.100000e-02
5.100000e-02
5.100000e-02
5.100000e-02
5.100000e-02
5.100000e-02
5.100000e-02
5.100000e-02
5.100000e-02
5.100000e-02
5.100000e-02
5.100000e-02
5.100000e-02
5.100000e-02
5.100000e-02
5.100000e-02
5.100000e-02
5.100000e-02
5.100000e-02
5.100000e-02
5.100000e-02
5.100000e-02
5.100000e-02
5.100000e-02
5.100000e-02
5.100000e-02
5.100000e-02
5.100000e-02
5.100000e-02
5.100000e-02
5.100000e-02
5.100000e-02
5.100000e-02
5.100000e-02
5.100000e-02
5.100000e-02
5.100000e-02
5.100000e-02
5.100000e-02
5.100000e-02
5.100000e-02
5.100000e-02
5.100000e-02
5.100000e-02
5.100000e-02
5.100000e-02
5.100000e-02
5.100000e-02
5.100000e-02
5.100000e-02
5.100000e-02
5.100000e-02
5.100000e-02
5.100000e-02
5.100000e-02
5.100000e-02
5.100000e-02
5.100000e-02
5.100000e-02
5.100000e-02
5.100000e-02
5.100000e-02
5.100000e-02
5.100000e-02
5.100000e-02
5.100000e-02
5.100000e-02
5.100000e-02
5.100000e-02
5.100000e-02
5.100000e-02
5.100000e-02
5.100000e-02
5.100000e-02
5.100000e-02
5.100000e-02
5.100000e-02
5.100000e-02
5.100000e-02
5.100000e-02
5.100000e-02
5.100000e-02
5.100000e-02
5.100000e-02
5.100000e-02
5.100000e-02
5.100000e-02
5.100000e-02
5.100000e-02
5.100000e-02
5.100000e-02
5.100000e-02
5.100000e-02
5.100000e-02
5.100000e-02
5.100000e-02
5.100000e-02
5.100000e-02
5.100000e-02
5.100000e-02
5.100000e-02
5.100000e-02
5.100000e-02
5.100000e-02
5.100000e-02
5.100000e-02
5.100000e-02
5.100000e-02
5.100000e-02
5.100000e-02
5.100000e-02
5.100000e-02
5.100000e-02
5.100000e-02
5.100000e-02
5.100000e-02
5.100000e-02
5.100000e-02
5.100000e-02
5.100000e-02
5.100000e-02
5.100000e-02
5.100000e-02
5.100000e-02
5.100000e-02
5.100000e-02
5.100000e-02
5.100000e-02
5.100000e-02
5.100000e-02
5.100000e-02
5.100000e-02
5.100000e-02
5.100000e-02
5.100000e-02
5.100000e-02
5.100000e-02
5.100000e-02
5.100000e-02
5.100000e-02
5.100000e-02
5.100000e-02
5.100000e-02
5.100000e-02
5.100000e-02
5.100000e-02
5.100000e-02
5.100000e-02
5.100000e-02
5.100000e-02
5.100000e-02
5.100000e-02
5.100000e-02
5.100000e-02
5.100000e-02
5.100000e-02
5.100000e-02
5.100000e-02
5.100000e-02
5.100000e-02
5.100000e-02
5.100000e-02
5.100000e-02
5.100000e-02
5.100000e-02
5.100000e-02
5.100000e-02
5.100000e-02
5.100000e-02
5.100000e-02
5.100000e-02
5.100000e-02
5.100000e-02
5.100000e-02
5.100000e-02
5.100000e-02
5.100000e-02
5.100000e-02
5.100000e-02
5.100000e-02
5.100000e-02
5.100000e-02
5.100000e-02
5.100000e-02
5.100000e-02
5.100000e-02
5.100000e-02
5.100000e-02
5.100000e-02
5.100000e-02
5.100000e-02
5.100000e-02
5.100000e-02
5.100000e-02
5.100000e-02
5.100000e-02
5.100000e-02
5.100000e-02
5.100000e-02
5.100000e-02
5.100000e-02
5.100000e-02
5.100000e-02
5.100000e-02
5.100000e-02
5.100000e-02
5.100000e-02
5.100000e-02
5.100000e-02
5.100000e-02
5.100000e-02
5.100000e-02
5.100000e-02
5.100000e-02
5.100000e-02
5.100000e-02
5.100000e-02
5.100000e-02
5.100000e-02
5.100000e-02
5.100000e-02
5.100000e-02
5.100000e-02
5.100000e-02
5.100000e-02
5.100000e-02
5.100000e-02
5.100000e-02
5.100000e-02
5.100000e-02
5.100000e-02
5.100000e-02
5.100000e-02
5.100000e-02
5.100000e-02
5.100000e-02
5.100000e-02
5.100000e-02
5.100000e-02
5.100000e-02
5.100000e-02
5.100000e-02
5.100000e-02
5.100000e-02
5.100000e-02
5.100000e-02
5.100000e-02
5.100000e-02
5.100000e-02
5.100000e-02
5.100000e-02
5.100000e-02
5.100000e-02
5.100000e-02
5.100000e-02
5.100000e-02
5.100000e-02
5.100000e-02
5.100000e-02
5.100000e-02
5.100000e-02
5.100000e-02
5.100000e-02
5.100000e-02
5.100000e-02
5.100000e-02
5.100000e-02
5.100000e-02
5.100000e-02
5.100000e-02
5.100000e-02
5.100000e-02
5.100000e-02
5.100000e-02
5.100000e-02
5.100000e-02
5.100000e-02
5.100000e-02
5.100000e-02
5.100000e-02
5.100000e-02
5.100000e-02
5.100000e-02
5.100000e-02
5.100000e-02
5.100000e-02
5.100000e-02
5.100000e-02
5.100000e-02
5.100000e-02
5.100000e-02
5.100000e-02
5.100000e-02
5.100000e-02
5.100000e-02
5.100000e-02
5.100000e-02
5.100000e-02
2.010000e-01
2.010000e-01
2.010000e-01
2.010000e-01
2.010000e-01
2.010000e-01
2.010000e-01
2.010000e-01
2.010000e-01
2.010000e-01
2.010000e-01
2.010000e-01
2.010000e-01
2.010000e-01
2.010000e-01
2.010000e-01
2.010000e-01
2.010000e-01
2.010000e-01
2.010000e-01
2.010000e-01
2.010000e-01
2.010000e-01
2.010000e-01
2.010000e-01
2.010000e-01
2.010000e-01
2.010000e-01
2.010000e-01
2.010000e-01
2.010000e-01
2.010000e-01
2.010000e-01
1.566410e-01
1.498782e-01
1.669938e-01
1.540020e-01
1.596283e-01
1.462208e-01
1.452767e-01
1.393471e-01
1.347279e-01
1.604496e-01
1.548133e-01
1.492754e-01
1.600499e-01
1.483485e-01
1.578128e-01
6.919282e-02
1.993444e-01
1.967580e-01
1.913752e-01
1.937126e-01
1.918253e-01
1.865927e-01
1.919496e-01
1.885092e-01
1.851025e-01
1.855337e-01
1.813558e-01
1.769929e-01
1.816662e-01
1.770658e-01
1.727318e-01
1.675121e-01
1.983196e-01
1.769226e-01
1.718937e-01
1.668005e-01
1.636646e-01
1.567301e-01
1.537907e-01
1.583446e-01
1.465199e-01
1.723666e-01
1.628457e-01
2.003278e-01
1.514541e-01
1.374425e-01
1.449096e-01
1.390236e-01
1.324103e-01
1.269684e-01
1.243709e-01
1.306212e-01
1.237560e-01
1.182963e-01
1.141451e-01
1.209797e-01
1.129021e-01
1.086341e-01
1.041830e-01
1.015250e-01
9.810909e-02
9.420447e-02
8.718474e-02
8.419221e-02
7.322110e-02
1.137113e-01
9.730126e-02
8.395265e-02
7.317850e-02
6.168096e-02
1.915287e-01
1.866976e-01
2.003910e-01
1.982254e-01
1.995898e-01
1.947816e-01
1.966649e-01
1.925153e-01
1.871107e-01
1.953788e-01
1.981653e-01
2.002025e-01
9.016394e-02
7.724371e-02
6.301951e-02
8.957532e-02
7.409948e-02
5.972888e-02
1.914284e-01
1.866016e-01
2.004248e-01
1.982928e-01
1.995752e-01
1.948507e-01
1.966337e-01
1.924448e-01
1.869995e-01
8.959703e-02
7.696481e-02
6.298197e-02
9.024515e-02
7.453449e-02
5.986197e-02
2.004106e-01
1.982319e-01
1.994431e-01
1.947365e-01
1.963240e-01
1.920891e-01
1.869300e-01
9.086340e-02
7.770874e-02
6.306398e-02
2.002079e-01
1.973233e-01
1.939477e-01
1.916853e-01
1.882170e-01
1.870057e-01
1.794608e-01
8.992180e-02
7.529265e-02
6.065861e-02
1.167336e-01
1.025476e-01
8.779726e-02
7.146220e-02
5.953587e-02
1.921720e-01
1.876240e-01
2.004203e-01
1.983154e-01
1.995876e-01
1.950122e-01
1.966873e-01
1.924693e-01
1.872555e-01
9.235452e-02
7.896692e-02
6.413700e-02
9.002481e-02
7.490982e-02
1.860146e-01
1.906219e-01
1.943043e-01
1.974141e-01
6.017755e-02
2.004621e-01
1.984297e-01
1.954195e-01
9.263707e-02
7.948101e-02
6.353269e-02
1.906938e-01
1.855977e-01
2.003091e-01
1.980660e-01
1.994056e-01
1.943888e-01
1.961076e-01
1.890596e-01
1.912884e-01
1.823155e-01
1.853576e-01
1.131841e-01
9.977921e-02
8.603759e-02
7.357528e-02
6.119154e-02
8.726959e-02
7.246884e-02
5.920103e-02
2.003464e-01
1.979952e-01
1.992732e-01
1.942779e-01
1.959889e-01
1.917807e-01
1.865368e-01
1.772682e-01
8.890108e-02
7.709535e-02
6.262552e-02
2.005774e-01
1.981688e-01
1.943611e-01
1.916870e-01
1.883350e-01
1.869389e-01
1.792810e-01
9.032681e-02
7.487661e-02
6.046140e-02
1.164688e-01
1.023802e-01
8.778041e-02
7.146424e-02
5.952651e-02
1.914245e-01
1.865988e-01
2.003767e-01
1.982476e-01
1.995364e-01
1.949468e-01
1.965199e-01
1.921326e-01
1.867479e-01
9.192734e-02
7.869616e-02
6.400890e-02
8.867959e-02
7.409731e-02
5.983442e-02
1.917399e-01
1.869408e-01
2.004079e-01
1.693898e-01
1.982459e-01
1.995751e-01
1.947880e-01
1.966553e-01
1.924896e-01
1.870469e-01
9.019249e-02
7.709137e-02
6.271237e-02
8.788729e-02
7.351540e-02
5.957906e-02
2.004096e-01
1.982436e-01
1.993689e-01
1.948468e-01
1.960306e-01
1.912680e-01
1.859238e-01
8.896535e-02
7.693102e-02
6.249261e-02
2.003536e-01
1.985200e-01
1.958336e-01
1.911329e-01
1.909344e-01
1.863447e-01
1.821010e-01
8.900659e-02
7.389893e-02
5.984675e-02
1.208670e-01
1.066051e-01
8.843958e-02
7.423569e-02
6.186577e-02
2.003687e-01
1.981267e-01
1.992671e-01
1.834977e-01
1.886224e-01
1.928461e-01
1.961215e-01
1.981868e-01
2.002316e-01
1.946013e-01
1.959850e-01
1.915910e-01
1.864510e-01
8.874410e-02
7.626205e-02
6.276956e-02
2.005009e-01
1.977314e-01
1.926232e-01
1.879143e-01
1.816076e-01
8.953867e-02
7.448633e-02
5.990869e-02
6.386849e-02
1.963257e-01
1.942717e-01
1.906132e-01
1.900405e-01
1.843693e-01
1.829528e-01
1.848154e-01
1.775091e-01
1.686739e-01
1.724775e-01
1.765644e-01
1.788787e-01
1.603343e-01
1.659956e-01
1.706002e-01
1.702161e-01
1.454852e-01
1.337867e-01
1.242015e-01
1.145224e-01
1.040187e-01
9.208043e-02
8.040302e-02
7.270698e-02
6.303494e-02
7.896247e-02
8.475061e-02
9.512780e-02
9.575631e-02
1.123291e-01
1.088054e-01
1.062025e-01
1.237736e-01
1.199426e-01
1.169988e-01
1.269027e-01
1.380694e-01
1.336048e-01
1.298322e-01
1.507817e-01
1.469523e-01
1.422616e-01
1.387859e-01
1.365117e-01
1.648271e-01
1.461052e-01
1.550386e-01
1.598254e-01
1.995422e-01
6.215633e-02
1.998444e-01
1.996375e-01
1.981967e-01
1.962854e-01
2.004655e-01
1.912992e-01
1.887838e-01
1.856031e-01
1.695794e-01
1.750176e-01
1.810300e-01
1.866779e-01
1.912927e-01
1.949753e-01
1.979024e-01
1.999146e-01
2.004494e-01
1.992031e-01
1.968038e-01
1.936961e-01
1.735458e-01
2.001954e-01
1.984423e-01
1.957848e-01
1.921244e-01
1.878887e-01
1.834558e-01
1.789850e-01
2.006465e-01
1.996470e-01
1.971491e-01
1.950883e-01
1.901384e-01
1.855088e-01
1.809653e-01
1.770610e-01
1.695704e-01
1.637463e-01
6.804211e-02
5.950909e-02
9.057157e-02
8.171348e-02
7.047754e-02
6.210100e-02
9.475375e-02
8.018774e-02
1.293134e-01
1.222826e-01
1.116756e-01
9.762461e-02
8.590562e-02
7.590784e-02
6.669575e-02
5.990432e-02
1.133959e-01
1.018632e-01
1.891598e-01
1.822047e-01
1.745925e-01
1.650690e-01
1.539491e-01
1.413521e-01
1.277911e-01
2.003171e-01
1.985150e-01
1.949025e-01
1.888902e-01
1.810555e-01
1.714657e-01
1.609977e-01
1.496165e-01
1.379061e-01
1.272472e-01
1.145644e-01
1.037577e-01
9.118582e-02
7.654341e-02
6.449783e-02
1.425372e-01
1.341570e-01
1.238423e-01
1.116875e-01
1.003745e-01
9.007737e-02
8.049018e-02
7.188310e-02
6.306176e-02
5.970855e-02
1.769634e-01
1.690700e-01
1.588269e-01
1.464766e-01
8.274525e-02
7.616752e-02
6.424653e-02
1.308395e-01
1.168886e-01
1.025466e-01
8.722556e-02
7.303676e-02
6.196185e-02
1.891064e-01
1.820494e-01
1.742335e-01
1.643271e-01
1.531185e-01
1.408039e-01
1.275298e-01
1.133276e-01
1.004786e-01
8.635290e-02
2.002717e-01
1.985985e-01
1.951091e-01
1.895857e-01
1.811669e-01
1.700455e-01
1.589550e-01
1.469932e-01
1.344958e-01
1.223840e-01
2.002226e-01
1.977050e-01
1.939160e-01
1.894763e-01
1.830943e-01