VARIABLES = "X" "Y" "Z" "FREF"
ZONE T="instant 093"
STRANDID=0, SOLUTIONTIME=0
Nodes=3151, Elements=6298
ZONETYPE=FETriangle
DATAPACKING=BLOCK
VARLOCATION = ([1-3]=NODAL, [4]=CELLCENTERED)
5.000000e-01
2.807952e-01
2.990474e-01
3.131672e-01
3.243977e-01
3.380120e-01
3.519795e-01
3.661668e-01
3.815215e-01
3.978447e-01
4.128246e-01
4.253195e-01
4.365093e-01
4.467105e-01
4.560116e-01
4.641877e-01
4.710329e-01
4.761489e-01
4.808499e-01
4.858756e-01
4.902572e-01
4.936763e-01
4.961584e-01
4.979810e-01
4.991987e-01
4.998541e-01
2.668000e-01
2.668000e-01
2.668000e-01
2.668000e-01
2.668000e-01
2.668000e-01
2.668000e-01
2.668000e-01
2.668000e-01
2.668000e-01
2.668000e-01
2.668000e-01
4.164222e-01
4.155394e-01
4.124278e-01
4.072484e-01
3.986842e-01
3.932760e-01
3.865103e-01
3.773953e-01
3.697449e-01
3.622654e-01
3.540257e-01
3.442045e-01
3.363753e-01
3.291865e-01
3.227666e-01
3.144443e-01
3.058594e-01
3.000144e-01
2.914902e-01
2.796034e-01
4.168000e-01
4.920662e-01
4.840233e-01
4.760779e-01
4.687916e-01
4.604821e-01
4.527533e-01
4.448198e-01
4.372481e-01
4.298968e-01
4.231050e-01
4.323170e-01
3.069822e-01
2.951886e-01
4.414993e-01
4.264781e-01
3.148816e-01
3.236769e-01
3.066779e-01
3.233453e-01
2.846025e-01
3.250481e-01
3.110830e-01
3.268910e-01
3.372528e-01
4.924898e-01
3.476978e-01
3.589977e-01
3.428009e-01
3.509284e-01
3.995381e-01
4.051139e-01
4.347855e-01
4.204744e-01
4.154839e-01
4.405286e-01
4.430770e-01
4.280577e-01
4.887859e-01
4.844634e-01
4.368488e-01
4.454511e-01
4.395722e-01
4.517139e-01
4.434841e-01
4.522405e-01
4.223480e-01
4.338862e-01
4.275443e-01
4.158383e-01
3.081329e-01
2.939635e-01
2.786243e-01
2.827769e-01
2.819961e-01
2.975048e-01
3.103301e-01
2.835423e-01
2.966949e-01
3.117132e-01
3.247276e-01
2.752632e-01
2.844704e-01
2.983199e-01
3.113803e-01
4.905308e-01
3.268396e-01
3.390941e-01
3.417045e-01
3.536144e-01
3.451355e-01
3.548322e-01
3.673242e-01
2.810987e-01
2.963978e-01
3.138421e-01
3.303277e-01
3.296843e-01
3.299087e-01
3.362441e-01
3.441202e-01
3.576250e-01
3.686635e-01
3.755299e-01
3.832043e-01
2.818109e-01
2.975814e-01
3.120109e-01
3.324634e-01
3.433015e-01
3.536990e-01
3.652603e-01
3.599519e-01
3.689172e-01
3.709237e-01
3.805267e-01
3.897608e-01
4.011356e-01
3.422021e-01
3.520033e-01
3.646250e-01
3.805726e-01
4.876217e-01
4.817336e-01
4.797942e-01
4.752944e-01
3.922284e-01
4.022916e-01
4.139410e-01
3.484663e-01
3.733651e-01
3.840912e-01
3.934066e-01
4.039934e-01
4.137892e-01
4.253351e-01
3.604927e-01
3.701617e-01
3.822481e-01
3.857042e-01
3.966209e-01
4.067091e-01
4.843975e-01
4.779142e-01
4.739747e-01
4.696688e-01
4.673628e-01
4.140376e-01
4.236449e-01
4.354070e-01
3.952984e-01
4.087459e-01
4.215449e-01
4.323205e-01
4.448017e-01
3.666355e-01
3.777518e-01
3.876012e-01
3.995228e-01
4.192678e-01
4.317595e-01
4.418178e-01
4.535391e-01
4.092239e-01
4.204993e-01
4.296911e-01
4.410883e-01
4.502675e-01
4.612029e-01
4.570798e-01
4.613400e-01
3.821511e-01
3.925164e-01
4.017530e-01
4.122259e-01
4.210521e-01
4.305476e-01
4.381010e-01
4.492716e-01
4.572442e-01
4.679699e-01
4.469622e-01
4.505473e-01
4.800151e-01
4.735581e-01
4.698642e-01
4.639423e-01
4.620252e-01
4.582390e-01
4.543685e-01
4.513152e-01
4.560094e-01
4.595520e-01
4.644632e-01
4.678995e-01
4.745350e-01
2.668000e-01
4.998105e-01
4.985131e-01
4.963541e-01
4.938232e-01
4.895068e-01
4.844544e-01
4.777135e-01
4.686956e-01
4.578127e-01
4.467451e-01
4.364648e-01
4.253526e-01
4.138934e-01
4.015222e-01
3.905186e-01
3.814126e-01
3.722666e-01
3.615703e-01
3.500693e-01
3.383802e-01
3.265766e-01
3.144845e-01
3.022260e-01
2.896239e-01
2.774760e-01
5.000000e-01
4.231364e-01
4.303816e-01
4.369357e-01
4.450883e-01
4.520942e-01
4.600102e-01
4.682162e-01
4.770979e-01
4.850097e-01
4.928585e-01
4.168000e-01
2.762913e-01
2.856061e-01
2.979958e-01
3.175806e-01
3.296933e-01
3.408876e-01
3.519057e-01
3.614308e-01
3.692085e-01
3.741802e-01
3.811755e-01
3.876995e-01
3.926743e-01
3.964924e-01
3.997513e-01
4.046784e-01
4.083696e-01
4.103765e-01
4.125431e-01
4.147153e-01
4.163315e-01
2.668000e-01
2.668000e-01
2.668000e-01
2.668000e-01
2.668000e-01
2.668000e-01
2.668000e-01
2.668000e-01
2.668000e-01
2.668000e-01
2.668000e-01
4.359616e-01
4.506036e-01
2.960454e-01
3.240688e-01
3.132560e-01
4.177885e-01
4.189764e-01
4.292545e-01
4.256362e-01
4.391302e-01
4.376276e-01
4.429351e-01
4.283879e-01
4.572186e-01
2.790570e-01
4.529216e-01
4.412911e-01
4.528735e-01
4.331876e-01
4.467239e-01
4.402869e-01
4.552626e-01
4.486922e-01
2.806374e-01
3.346161e-01
2.972764e-01
2.922923e-01
2.829120e-01
3.244728e-01
3.459699e-01
3.080492e-01
3.413017e-01
3.229785e-01
3.453559e-01
3.322298e-01
3.528957e-01
3.600137e-01
2.886158e-01
4.223920e-01
2.800414e-01
2.900830e-01
3.077708e-01
4.160422e-01
4.238398e-01
4.295841e-01
4.914780e-01
4.824423e-01
4.877277e-01
4.882094e-01
4.699126e-01
4.744875e-01
4.769551e-01
4.799400e-01
3.042870e-01
2.951063e-01
2.805667e-01
4.834383e-01
4.684098e-01
4.703267e-01
4.732910e-01
4.796905e-01
4.628942e-01
4.643366e-01
4.713637e-01
4.750718e-01
4.121129e-01
4.148592e-01
4.199462e-01
4.505371e-01
4.572923e-01
4.660863e-01
4.469877e-01
4.560437e-01
4.584872e-01
4.621758e-01
4.625923e-01
4.634149e-01
4.657548e-01
4.046506e-01
4.228810e-01
4.309172e-01
4.404892e-01
4.458517e-01
4.500972e-01
4.550127e-01
4.060654e-01
4.072931e-01
4.114165e-01
4.317985e-01
4.380741e-01
3.167668e-01
3.074272e-01
4.405688e-01
4.447938e-01
3.939396e-01
4.132711e-01
4.167981e-01
4.246935e-01
4.291992e-01
4.306757e-01
4.343616e-01
3.954974e-01
3.956177e-01
3.983839e-01
4.144291e-01
4.191269e-01
4.204217e-01
4.236526e-01
3.972731e-01
3.279545e-01
3.173095e-01
3.064987e-01
2.929623e-01
2.791406e-01
3.988948e-01
4.058611e-01
4.091032e-01
4.093780e-01
4.123150e-01
3.789121e-01
3.806247e-01
3.789281e-01
3.823370e-01
3.948083e-01
3.972496e-01
3.978511e-01
4.006800e-01
3.805426e-01
3.824288e-01
3.815094e-01
3.855357e-01
3.869904e-01
3.887002e-01
2.819747e-01
2.954752e-01
3.142915e-01
3.262147e-01
3.376373e-01
3.500087e-01
3.619844e-01
3.590923e-01
3.585255e-01
3.656613e-01
3.672538e-01
3.633252e-01
3.674826e-01
3.693237e-01
3.760855e-01
3.743971e-01
3.747268e-01
3.395215e-01
3.289691e-01
3.189886e-01
3.072825e-01
2.948214e-01
2.800526e-01
3.419221e-01
3.515804e-01
3.621518e-01
3.222741e-01
3.313849e-01
3.406767e-01
3.510656e-01
5.000000e-01
5.000000e-01
5.000000e-01
5.000000e-01
5.000000e-01
5.000000e-01
5.000000e-01
5.000000e-01
5.000000e-01
5.000000e-01
5.000000e-01
5.000000e-01
5.000000e-01
5.000000e-01
5.000000e-01
5.000000e-01
5.000000e-01
5.000000e-01
5.000000e-01
5.000000e-01
5.000000e-01
5.000000e-01
5.000000e-01
5.000000e-01
5.000000e-01
5.000000e-01
5.000000e-01
5.000000e-01
5.000000e-01
5.000000e-01
5.000000e-01
5.000000e-01
5.000000e-01
2.668000e-01
2.668000e-01
2.668000e-01
2.668000e-01
2.668000e-01
2.668000e-01
2.668000e-01
2.668000e-01
2.668000e-01
2.668000e-01
2.668000e-01
2.668000e-01
2.668000e-01
2.668000e-01
2.668000e-01
2.668000e-01
2.668000e-01
2.668000e-01
2.668000e-01
2.668000e-01
2.668000e-01
2.668000e-01
2.668000e-01
2.668000e-01
2.668000e-01
2.668000e-01
2.668000e-01
2.668000e-01
2.668000e-01
2.668000e-01
2.668000e-01
2.668000e-01
2.668000e-01
4.096095e-01
4.169243e-01
4.137089e-01
4.208549e-01
4.283434e-01
4.438406e-01
4.320215e-01
4.370809e-01
3.841703e-01
3.910644e-01
3.961737e-01
3.975913e-01
4.026039e-01
4.064995e-01
4.109814e-01
4.275221e-01
4.157741e-01
4.098407e-01
4.210909e-01
4.321733e-01
4.038676e-01
4.038972e-01
2.868442e-01
2.788663e-01
4.138770e-01
4.250564e-01
4.361744e-01
4.237795e-01
4.311158e-01
4.386152e-01
4.337190e-01
4.405342e-01
4.430857e-01
4.575974e-01
4.345938e-01
4.427998e-01
4.309400e-01
4.466492e-01
4.365568e-01
4.257737e-01
4.502688e-01
4.408777e-01
4.316728e-01
4.222408e-01
4.498419e-01
4.569998e-01
4.543948e-01
4.474742e-01
4.414328e-01
3.025840e-01
2.927413e-01
2.815652e-01
4.191511e-01
4.258178e-01
4.315638e-01
4.139580e-01
4.206625e-01
4.089479e-01
2.787897e-01
2.876542e-01
2.897412e-01
2.984821e-01
3.009972e-01
3.078026e-01
3.100746e-01
3.126083e-01
3.131033e-01
3.185402e-01
3.216873e-01
3.244390e-01
3.251771e-01
3.300021e-01
3.334386e-01
3.363834e-01
3.323181e-01
3.374432e-01
3.418192e-01
3.452962e-01
3.483554e-01
3.405490e-01
3.451086e-01
3.497287e-01
3.537949e-01
3.571742e-01
3.602613e-01
3.482627e-01
3.167062e-01
3.073296e-01
2.971839e-01
2.865801e-01
2.794862e-01
3.530965e-01
3.576408e-01
3.619662e-01
3.658067e-01
3.689544e-01
3.719924e-01
3.604209e-01
3.655652e-01
3.699712e-01
3.741040e-01
3.778044e-01
3.804702e-01
3.834256e-01
3.669045e-01
3.728418e-01
3.780568e-01
3.820373e-01
3.860961e-01
3.898663e-01
3.914078e-01
3.944656e-01
3.732978e-01
3.793445e-01
3.852831e-01
3.906770e-01
3.935733e-01
3.979396e-01
4.024716e-01
4.009946e-01
4.054318e-01
4.133606e-01
4.406225e-01
3.996626e-01
4.098710e-01
4.207787e-01
3.305066e-01
3.217705e-01
3.123049e-01
3.026577e-01
2.939292e-01
2.852263e-01
4.315898e-01
3.925498e-01
4.038893e-01
4.155952e-01
4.267755e-01
4.367551e-01
4.459629e-01
4.160943e-01
4.223189e-01
4.266095e-01
4.305185e-01
4.339540e-01
4.384689e-01
4.429763e-01
4.471620e-01
4.472040e-01
4.493496e-01
4.517692e-01
4.537113e-01
4.554022e-01
4.575263e-01
4.386361e-01
4.441425e-01
4.489174e-01
4.533015e-01
4.574488e-01
4.609184e-01
4.630163e-01
4.470890e-01
4.494159e-01
4.538242e-01
4.590949e-01
4.627949e-01
4.656063e-01
4.680828e-01
4.560234e-01
4.644513e-01
4.633662e-01
4.692300e-01
4.704724e-01
4.727385e-01
4.753904e-01
4.771888e-01
4.635213e-01
4.726524e-01
4.778810e-01
4.811907e-01
4.706805e-01
4.783489e-01
4.816892e-01
4.845480e-01
4.822843e-01
4.879929e-01
3.444745e-01
3.360382e-01
3.269831e-01
3.176978e-01
3.085680e-01
2.992533e-01
2.883502e-01
2.803149e-01
4.862041e-01
4.913035e-01
4.878767e-01
4.920225e-01
4.962251e-01
4.987537e-01
4.972319e-01
4.952710e-01
4.950094e-01
4.929672e-01
4.919925e-01
4.923720e-01
4.882332e-01
4.886824e-01
4.893500e-01
4.902146e-01
4.837706e-01
4.841963e-01
4.849322e-01
4.859009e-01
4.870326e-01
4.788997e-01
4.796941e-01
4.807636e-01
4.820569e-01
4.834766e-01
4.779036e-01
4.796086e-01
4.727447e-01
4.736223e-01
4.747750e-01
4.762337e-01
4.657585e-01
4.667166e-01
4.679080e-01
4.695137e-01
4.714855e-01
4.735503e-01
4.754317e-01
4.581163e-01
4.590302e-01
4.601504e-01
4.618224e-01
4.641545e-01
4.667243e-01
4.690266e-01
4.706379e-01
4.418442e-01
4.423401e-01
4.506913e-01
4.515480e-01
4.530269e-01
4.558667e-01
4.588883e-01
4.624252e-01
4.631256e-01
4.657429e-01
4.432034e-01
4.510713e-01
4.380487e-01
3.055758e-01
3.247294e-01
3.138938e-01
3.287194e-01
3.236286e-01
3.426332e-01
3.390295e-01
3.336683e-01
3.604348e-01
3.538290e-01
3.586625e-01
3.502303e-01
3.413535e-01
3.322763e-01
3.231429e-01
3.138454e-01
3.041264e-01
2.949082e-01
2.856442e-01
3.487976e-01
3.435675e-01
3.760657e-01
3.692815e-01
3.634780e-01
3.582552e-01
3.531847e-01
3.841613e-01
3.780151e-01
3.725571e-01
3.674717e-01
3.625410e-01
3.983690e-01
3.920767e-01
3.864301e-01
3.813086e-01
3.764397e-01
3.716120e-01
4.115657e-01
4.055393e-01
3.997572e-01
3.946211e-01
3.898575e-01
3.851863e-01
3.803631e-01
4.234538e-01
4.184226e-01
4.124003e-01
4.073030e-01
4.026561e-01
3.982786e-01
3.936460e-01
3.886944e-01
4.332672e-01
4.313645e-01
4.241792e-01
4.193383e-01
4.146710e-01
4.107462e-01
4.065409e-01
4.015692e-01
3.965800e-01
4.620517e-01
4.554752e-01
4.471491e-01
4.377309e-01
4.273068e-01
4.160340e-01
4.040935e-01
4.537163e-01
4.445701e-01
4.343344e-01
4.228169e-01
4.112211e-01
2.791597e-01
2.778804e-01
2.799453e-01
2.920187e-01
2.882377e-01
2.950773e-01
3.048759e-01
2.787243e-01
2.895767e-01
2.994733e-01
3.080450e-01
3.173985e-01
2.793535e-01
2.908173e-01
3.014376e-01
3.112759e-01
3.204515e-01
3.296691e-01
3.730438e-01
3.643112e-01
3.554435e-01
3.465202e-01
3.375149e-01
3.283577e-01
3.189723e-01
3.095284e-01
2.997808e-01
2.888804e-01
2.797176e-01
2.765118e-01
2.823055e-01
2.924993e-01
3.031434e-01
3.134441e-01
3.232478e-01
3.326397e-01
3.417763e-01
2.758146e-01
2.788255e-01
2.880294e-01
2.957584e-01
3.053220e-01
3.154425e-01
3.254764e-01
3.352242e-01
3.446871e-01
3.538346e-01
2.818994e-01
2.911602e-01
2.999643e-01
3.083445e-01
3.177585e-01
3.275976e-01
3.374411e-01
3.470997e-01
3.565656e-01
3.659681e-01
3.763340e-01
2.771505e-01
2.862531e-01
2.944855e-01
3.034246e-01
3.119802e-01
3.204123e-01
3.298874e-01
3.395650e-01
3.492639e-01
3.587903e-01
3.681087e-01
3.773652e-01
3.856005e-01
2.779416e-01
2.881876e-01
2.969636e-01
3.065821e-01
3.156685e-01
3.239480e-01
3.319616e-01
3.418278e-01
3.512883e-01
3.609145e-01
3.702687e-01
3.793742e-01
3.887460e-01
3.955983e-01
2.730177e-01
2.794289e-01
2.890311e-01
2.997499e-01
3.074140e-01
3.190297e-01
3.280035e-01
3.359130e-01
3.426341e-01
3.540186e-01
3.626713e-01
3.724282e-01
3.815122e-01
3.901458e-01
4.008879e-01
4.055155e-01
3.875135e-01
3.781800e-01
3.691760e-01
3.604098e-01
3.516097e-01
3.426505e-01
3.334719e-01
3.240779e-01
3.143580e-01
3.041091e-01
2.936747e-01
2.817216e-01
4.994150e-01
4.997971e-01
4.980177e-01
4.990587e-01
4.997440e-01
4.959474e-01
4.976169e-01
4.988736e-01
4.996976e-01
4.906799e-01
4.932754e-01
4.954819e-01
4.973115e-01
4.987270e-01
4.996583e-01
4.803904e-01
4.862772e-01
4.897925e-01
4.926144e-01
4.950159e-01
4.970201e-01
4.985819e-01
4.996176e-01
4.822810e-01
4.857789e-01
4.890241e-01
4.919566e-01
4.945289e-01
4.966990e-01
4.984059e-01
4.995589e-01
4.735596e-01
4.771854e-01
4.809342e-01
4.846625e-01
4.881082e-01
4.912221e-01
4.939636e-01
4.962853e-01
4.981267e-01
4.994104e-01
4.997526e-01
4.657245e-01
4.708139e-01
4.752797e-01
4.795041e-01
4.834598e-01
4.870935e-01
4.903711e-01
4.932516e-01
4.956771e-01
4.975643e-01
4.988122e-01
4.996749e-01
4.509487e-01
4.578296e-01
4.636865e-01
4.688378e-01
4.735900e-01
4.780357e-01
4.821630e-01
4.859453e-01
4.893529e-01
4.923463e-01
4.948797e-01
4.969226e-01
4.985238e-01
4.996047e-01
4.324639e-01
4.419936e-01
4.495602e-01
4.560840e-01
4.617474e-01
4.669714e-01
4.015790e-01
3.916221e-01
3.823606e-01
3.738585e-01
3.653612e-01
3.566704e-01
3.477242e-01
3.384979e-01
3.289409e-01
3.189830e-01
3.086546e-01
2.977755e-01
2.868040e-01
4.718794e-01
4.764696e-01
4.807194e-01
4.846137e-01
4.881293e-01
4.912426e-01
4.939626e-01
4.963125e-01
4.982485e-01
4.995384e-01
2.785777e-01
2.905418e-01
3.025802e-01
3.147091e-01
3.269058e-01
3.391263e-01
3.513068e-01
3.633761e-01
3.752613e-01
3.869099e-01
3.983244e-01
4.094920e-01
4.203315e-01
4.308874e-01
4.409496e-01
4.503260e-01
4.589257e-01
4.671235e-01
4.750702e-01
4.806410e-01
4.859404e-01
4.914622e-01
4.952771e-01
4.982085e-01
4.239644e-01
4.341556e-01
4.412530e-01
4.482629e-01
4.541235e-01
4.596989e-01
4.650340e-01
4.700651e-01
4.747399e-01
4.790668e-01
4.830523e-01
4.866362e-01
4.898546e-01
4.928316e-01
4.954535e-01
4.981041e-01
4.993179e-01
2.792528e-01
2.917228e-01
3.042313e-01
3.167769e-01
3.293352e-01
3.418645e-01
3.543098e-01
3.666100e-01
3.787082e-01
3.905582e-01
4.021181e-01
4.133335e-01
4.241415e-01
4.344798e-01
4.442584e-01
4.534182e-01
4.619158e-01
4.697415e-01
4.766926e-01
4.828260e-01
4.882000e-01
4.928340e-01
4.964458e-01
4.989472e-01
2.798808e-01
2.929002e-01
3.058929e-01
3.188735e-01
3.318177e-01
3.446839e-01
3.574153e-01
3.699533e-01
3.822393e-01
3.942178e-01
4.058326e-01
4.170243e-01
4.277326e-01
4.378991e-01
4.474693e-01
4.563952e-01
4.646278e-01
4.721153e-01
4.788103e-01
4.847139e-01
4.897882e-01
4.939802e-01
4.971767e-01
4.992490e-01
2.805099e-01
2.940766e-01
3.075968e-01
3.210556e-01
3.344225e-01
3.476412e-01
3.606572e-01
3.734102e-01
3.858420e-01
4.146616e-01
4.044109e-01
3.946637e-01
3.867593e-01
3.787084e-01
3.703667e-01
3.617126e-01
3.527291e-01
3.434024e-01
3.337191e-01
3.236763e-01
3.132525e-01
3.024300e-01
2.909188e-01
2.820351e-01
3.978952e-01
4.095138e-01
4.206417e-01
4.312250e-01
4.412136e-01
4.505627e-01
4.592291e-01
4.671708e-01
4.743512e-01
4.807419e-01
4.863154e-01
4.910294e-01
4.948304e-01
4.976488e-01
4.994005e-01
2.810502e-01
2.952840e-01
3.094287e-01
3.234363e-01
3.372457e-01
3.508135e-01
3.640870e-01
3.770162e-01
3.895473e-01
4.016294e-01
4.132123e-01
4.242449e-01
4.346761e-01
4.444608e-01
4.535623e-01
4.619441e-01
4.695727e-01
4.764224e-01
4.824703e-01
4.876861e-01
4.920339e-01
4.954775e-01
4.979769e-01
4.994934e-01
2.817966e-01
2.968181e-01
3.116539e-01
3.262025e-01
3.404271e-01
3.542944e-01
3.677693e-01
3.808158e-01
3.933906e-01
4.054569e-01
4.169725e-01
4.278835e-01
4.381335e-01
4.476783e-01
4.565002e-01
4.645662e-01
4.718522e-01
4.783443e-01
4.840322e-01
4.888843e-01
4.928776e-01
4.959968e-01
4.982279e-01
4.995608e-01
2.831456e-01
2.990594e-01
3.145312e-01
3.295348e-01
3.440941e-01
3.581764e-01
3.717541e-01
3.848322e-01
3.973801e-01
4.094006e-01
4.208365e-01
4.316133e-01
4.416567e-01
4.509055e-01
4.594096e-01
4.671176e-01
4.740345e-01
4.801493e-01
4.854738e-01
4.899579e-01
4.936112e-01
4.964411e-01
4.984413e-01
4.996192e-01
2.849069e-01
3.020971e-01
3.181493e-01
3.335024e-01
3.483620e-01
3.625867e-01
3.760434e-01
3.889991e-01
4.014404e-01
4.134964e-01
4.248558e-01
4.355035e-01
4.453608e-01
4.541943e-01
4.623096e-01
4.695711e-01
4.761713e-01
4.818972e-01
4.868401e-01
4.909084e-01
4.942579e-01
4.968550e-01
4.266065e-01
4.165245e-01
4.054722e-01
3.990801e-01
3.916171e-01
3.836887e-01
3.753885e-01
3.667062e-01
3.576551e-01
3.482655e-01
3.385605e-01
3.285273e-01
3.182435e-01
3.077286e-01
2.978287e-01
2.868775e-01
4.986580e-01
4.996846e-01
2.884949e-01
3.073310e-01
3.223296e-01
3.379922e-01
3.535503e-01
3.679650e-01
3.805667e-01
3.916471e-01
4.056202e-01
4.179585e-01
4.290505e-01
4.395464e-01
4.497177e-01
4.579059e-01
4.647486e-01
4.717489e-01
4.785779e-01
4.839101e-01
4.878962e-01
4.916315e-01
4.948116e-01
4.973384e-01
4.989930e-01
4.997347e-01
4.997443e-01
4.996486e-01
4.988920e-01
4.997617e-01
4.993974e-01
4.985345e-01
4.973757e-01
4.996517e-01
4.988960e-01
4.979897e-01
4.966882e-01
4.951619e-01
4.994585e-01
4.985266e-01
4.972830e-01
4.958438e-01
4.941101e-01
4.922040e-01
4.996621e-01
4.987481e-01
4.979819e-01
4.965965e-01
4.948795e-01
4.929439e-01
4.907832e-01
4.884634e-01
4.839893e-01
4.995479e-01
4.985575e-01
4.971820e-01
4.957520e-01
4.938734e-01
4.916790e-01
4.892752e-01
4.867048e-01
4.788848e-01
4.997638e-01
4.993333e-01
4.982329e-01
4.966803e-01
4.948102e-01
4.927621e-01
4.903618e-01
4.876780e-01
4.848291e-01
4.818876e-01
4.731422e-01
4.996258e-01
4.988432e-01
4.977535e-01
4.960934e-01
4.940095e-01
4.916184e-01
4.889866e-01
4.860570e-01
4.828629e-01
4.795949e-01
4.763384e-01
4.994102e-01
4.984464e-01
4.971038e-01
4.953721e-01
4.931541e-01
4.905401e-01
4.876096e-01
4.844153e-01
4.809589e-01
4.771935e-01
4.735555e-01
4.700466e-01
4.664171e-01
4.583571e-01
4.996974e-01
4.988147e-01
4.979411e-01
4.964719e-01
4.945478e-01
4.922003e-01
4.894225e-01
4.862730e-01
4.827866e-01
4.790410e-01
4.750968e-01
4.705557e-01
4.667036e-01
4.630636e-01
4.284162e-01
4.375910e-01
4.995953e-01
4.987532e-01
4.974066e-01
4.958154e-01
4.937308e-01
4.911909e-01
4.882373e-01
4.849044e-01
4.812233e-01
4.771435e-01
4.728508e-01
4.686163e-01
4.625622e-01
4.591137e-01
4.557486e-01
4.477342e-01
2.668000e-01
2.668000e-01
2.668000e-01
2.668000e-01
2.668000e-01
2.668000e-01
2.668000e-01
2.668000e-01
2.668000e-01
2.668000e-01
2.668000e-01
2.668000e-01
2.668000e-01
2.668000e-01
2.668000e-01
2.668000e-01
2.668000e-01
2.668000e-01
2.668000e-01
2.668000e-01
2.668000e-01
2.668000e-01
2.668000e-01
2.668000e-01
2.668000e-01
2.668000e-01
2.668000e-01
2.668000e-01
2.668000e-01
2.668000e-01
2.668000e-01
2.668000e-01
2.668000e-01
2.668000e-01
2.668000e-01
2.668000e-01
2.668000e-01
2.668000e-01
2.668000e-01
2.668000e-01
2.668000e-01
2.668000e-01
2.668000e-01
2.668000e-01
2.668000e-01
2.668000e-01
2.668000e-01
2.668000e-01
2.668000e-01
2.668000e-01
2.668000e-01
2.668000e-01
2.668000e-01
2.668000e-01
2.668000e-01
2.668000e-01
2.668000e-01
2.668000e-01
2.668000e-01
2.668000e-01
2.668000e-01
2.668000e-01
2.668000e-01
2.668000e-01
2.668000e-01
2.668000e-01
2.668000e-01
2.668000e-01
2.668000e-01
2.668000e-01
2.668000e-01
2.668000e-01
2.668000e-01
2.668000e-01
2.668000e-01
2.668000e-01
2.668000e-01
2.668000e-01
2.668000e-01
2.668000e-01
2.668000e-01
2.668000e-01
2.668000e-01
2.668000e-01
2.668000e-01
2.668000e-01
2.668000e-01
2.668000e-01
2.668000e-01
2.668000e-01
2.668000e-01
2.668000e-01
2.668000e-01
2.668000e-01
2.668000e-01
2.668000e-01
2.668000e-01
2.668000e-01
2.668000e-01
2.668000e-01
2.668000e-01
2.668000e-01
2.668000e-01
2.668000e-01
2.668000e-01
2.668000e-01
2.668000e-01
2.668000e-01
2.668000e-01
2.668000e-01
2.668000e-01
2.668000e-01
2.668000e-01
2.668000e-01
2.668000e-01
2.668000e-01
2.668000e-01
2.668000e-01
2.668000e-01
2.668000e-01
2.668000e-01
2.668000e-01
2.668000e-01
2.668000e-01
2.668000e-01
2.668000e-01
2.668000e-01
2.668000e-01
2.668000e-01
2.668000e-01
2.668000e-01
2.668000e-01
2.668000e-01
2.668000e-01
2.668000e-01
2.668000e-01
2.668000e-01
2.668000e-01
2.668000e-01
2.668000e-01
2.668000e-01
2.668000e-01
2.668000e-01
2.668000e-01
2.668000e-01
2.668000e-01
2.668000e-01
2.668000e-01
2.668000e-01
2.668000e-01
2.668000e-01
2.668000e-01
2.668000e-01
2.668000e-01
2.668000e-01
2.668000e-01
2.668000e-01
2.668000e-01
2.668000e-01
2.668000e-01
2.668000e-01
2.668000e-01
2.668000e-01
2.668000e-01
2.668000e-01
2.668000e-01
2.668000e-01
2.668000e-01
2.668000e-01
2.668000e-01
2.668000e-01
2.668000e-01
2.668000e-01
2.668000e-01
2.668000e-01
2.668000e-01
2.668000e-01
2.668000e-01
2.668000e-01
2.668000e-01
2.668000e-01
2.668000e-01
2.668000e-01
2.668000e-01
2.668000e-01
2.668000e-01
2.668000e-01
2.668000e-01
2.668000e-01
2.668000e-01
2.668000e-01
2.668000e-01
2.668000e-01
2.668000e-01
2.668000e-01
2.668000e-01
2.668000e-01
2.668000e-01
2.668000e-01
2.668000e-01
2.668000e-01
2.668000e-01
2.668000e-01
2.668000e-01
2.668000e-01
2.668000e-01
2.668000e-01
2.668000e-01
2.668000e-01
2.668000e-01
2.668000e-01
2.668000e-01
2.668000e-01
2.668000e-01
2.668000e-01
2.668000e-01
2.668000e-01
2.668000e-01
2.668000e-01
2.668000e-01
2.668000e-01
2.668000e-01
2.668000e-01
2.668000e-01
2.668000e-01
2.668000e-01
2.668000e-01
2.668000e-01
2.668000e-01
2.668000e-01
2.668000e-01
2.668000e-01
2.668000e-01
2.668000e-01
2.668000e-01
2.668000e-01
2.668000e-01
2.668000e-01
2.668000e-01
2.668000e-01
2.668000e-01
2.668000e-01
2.668000e-01
2.668000e-01
2.668000e-01
2.668000e-01
2.668000e-01
2.668000e-01
2.668000e-01
2.668000e-01
2.668000e-01
2.668000e-01
2.668000e-01
2.668000e-01
2.668000e-01
2.668000e-01
2.668000e-01
2.668000e-01
2.668000e-01
2.668000e-01
2.668000e-01
2.668000e-01
2.668000e-01
2.668000e-01
2.668000e-01
2.668000e-01
2.668000e-01
2.668000e-01
2.668000e-01
2.668000e-01
2.668000e-01
2.668000e-01
2.668000e-01
2.668000e-01
2.668000e-01
2.668000e-01
2.668000e-01
2.668000e-01
2.668000e-01
2.668000e-01
2.668000e-01
2.668000e-01
2.668000e-01
2.668000e-01
2.668000e-01
2.668000e-01
2.668000e-01
2.668000e-01
2.668000e-01
2.668000e-01
2.668000e-01
2.668000e-01
2.668000e-01
2.668000e-01
2.668000e-01
2.668000e-01
2.668000e-01
2.668000e-01
2.668000e-01
2.668000e-01
2.668000e-01
2.668000e-01
2.668000e-01
2.668000e-01
2.668000e-01
2.668000e-01
2.668000e-01
2.668000e-01
2.668000e-01
2.668000e-01
2.668000e-01
2.668000e-01
2.668000e-01
2.668000e-01
2.668000e-01
2.668000e-01
2.668000e-01
2.668000e-01
2.668000e-01
2.668000e-01
2.668000e-01
2.668000e-01
2.668000e-01
2.668000e-01
2.668000e-01
2.668000e-01
2.668000e-01
2.668000e-01
2.668000e-01
2.668000e-01
2.668000e-01
2.668000e-01
2.668000e-01
2.668000e-01
2.668000e-01
2.668000e-01
2.668000e-01
2.668000e-01
2.668000e-01
2.668000e-01
2.668000e-01
2.668000e-01
2.668000e-01
2.668000e-01
2.668000e-01
2.668000e-01
2.668000e-01
2.668000e-01
2.668000e-01
2.668000e-01
2.668000e-01
2.668000e-01
2.668000e-01
2.668000e-01
2.668000e-01
2.668000e-01
2.668000e-01
2.668000e-01
2.668000e-01
2.668000e-01
2.668000e-01
2.668000e-01
2.668000e-01
2.668000e-01
2.668000e-01
2.668000e-01
2.668000e-01
2.668000e-01
2.668000e-01
2.668000e-01
4.168000e-01
4.168000e-01
4.168000e-01
4.168000e-01
4.168000e-01
4.168000e-01
4.168000e-01
4.168000e-01
4.168000e-01
4.168000e-01
4.168000e-01
4.168000e-01
4.168000e-01
4.168000e-01
4.168000e-01
4.168000e-01
4.168000e-01
4.168000e-01
4.168000e-01
4.168000e-01
4.168000e-01
4.168000e-01
4.168000e-01
4.168000e-01
4.168000e-01
4.168000e-01
4.168000e-01
4.168000e-01
4.168000e-01
4.168000e-01
4.168000e-01
4.168000e-01
4.168000e-01
3.794847e-01
3.736452e-01
3.885977e-01
3.780488e-01
3.820690e-01
3.705685e-01
3.699142e-01
3.650987e-01
3.612880e-01
3.743875e-01
3.664993e-01
3.604995e-01
3.700356e-01
3.583959e-01
3.661791e-01
2.908953e-01
4.154786e-01
4.134019e-01
4.089295e-01
4.107849e-01
4.093276e-01
4.054243e-01
4.093705e-01
4.067458e-01
4.040553e-01
4.041707e-01
4.008719e-01
3.973578e-01
4.007237e-01
3.972302e-01
3.936592e-01
3.895064e-01
4.138480e-01
3.968043e-01
3.929239e-01
3.888884e-01
3.864220e-01
3.805732e-01
3.770639e-01
3.810964e-01
3.711666e-01
3.932106e-01
3.851187e-01
4.160255e-01
3.754629e-01
3.633153e-01
3.697539e-01
3.642011e-01
3.588923e-01
3.547133e-01
3.524128e-01
3.561676e-01
3.508544e-01
3.463971e-01
3.429775e-01
3.479970e-01
3.412150e-01
3.366190e-01
3.326213e-01
3.290195e-01
3.253973e-01
3.214470e-01
3.136118e-01
3.094690e-01
2.952265e-01
3.395932e-01
3.232634e-01
3.096296e-01
2.989903e-01
2.861679e-01
4.090061e-01
4.056037e-01
4.163001e-01
4.144991e-01
4.155606e-01
4.116218e-01
4.130954e-01
4.097839e-01
4.059524e-01
4.104317e-01
4.129522e-01
4.154235e-01
3.164756e-01
3.048889e-01
2.877570e-01
3.156109e-01
2.994165e-01
2.810093e-01
4.087869e-01
4.054152e-01
4.162001e-01
4.143444e-01
4.153943e-01
4.115063e-01
4.128878e-01
4.095612e-01
4.057337e-01
3.152212e-01
3.040923e-01
2.889747e-01
3.166527e-01
2.998909e-01
2.809427e-01
4.161422e-01
4.141863e-01
4.152138e-01
4.112854e-01
4.125824e-01
4.092868e-01
4.056781e-01
3.171936e-01
3.051885e-01
2.885636e-01
4.159851e-01
4.134560e-01
4.109414e-01
4.090078e-01
4.067364e-01
4.057262e-01
3.995906e-01
3.168387e-01
3.016068e-01
2.818249e-01
3.434102e-01
3.288886e-01
3.136070e-01
2.952043e-01
2.806627e-01
4.091028e-01
4.058339e-01
4.162216e-01
4.143795e-01
4.153799e-01
4.114941e-01
4.128731e-01
4.094388e-01
4.056003e-01
3.185169e-01
3.065544e-01
2.894706e-01
3.162295e-01
3.004396e-01
3.949619e-01
4.034941e-01
4.079480e-01
4.112374e-01
2.811892e-01
4.161289e-01
4.142892e-01
4.116383e-01
3.182313e-01
3.060199e-01
2.882850e-01
4.070359e-01
4.032647e-01
4.159105e-01
4.136676e-01
4.148914e-01
4.104996e-01
4.117979e-01
4.063376e-01
4.076828e-01
4.009703e-01
4.031995e-01
3.382078e-01
3.247058e-01
3.117128e-01
2.989073e-01
2.844889e-01
3.106811e-01
2.957716e-01
2.794567e-01
4.158600e-01
4.134035e-01
4.144845e-01
4.099476e-01
4.114759e-01
4.078861e-01
4.039392e-01
3.831271e-01
3.128890e-01
3.019432e-01
2.862084e-01
4.162842e-01
4.137615e-01
4.103717e-01
4.078797e-01
4.054607e-01
4.042499e-01
3.974220e-01
3.136165e-01
2.985294e-01
2.804009e-01
3.396691e-01
3.255839e-01
3.107809e-01
2.931463e-01
2.794901e-01
4.074496e-01
4.037853e-01
4.159829e-01
4.137815e-01
4.150000e-01
4.105655e-01
4.120202e-01
4.080533e-01
4.037712e-01
3.152810e-01
3.036521e-01
2.873374e-01
3.120194e-01
2.972339e-01
2.796877e-01
4.074539e-01
4.038598e-01
4.159625e-01
3.744227e-01
4.136497e-01
4.149170e-01
4.103008e-01
4.119477e-01
4.082124e-01
4.040713e-01
3.125370e-01
3.009569e-01
2.856240e-01
3.103731e-01
2.957317e-01
2.789388e-01
4.158650e-01
4.133772e-01
4.144558e-01
4.099643e-01
4.110130e-01
4.065637e-01
4.021454e-01
3.111769e-01
3.000759e-01
2.843402e-01
4.155504e-01
4.135893e-01
4.110447e-01
4.052792e-01
4.063027e-01
4.012315e-01
3.983567e-01
3.102911e-01
2.953427e-01
2.785539e-01
3.421285e-01
3.288077e-01
3.084402e-01
2.953535e-01
2.832070e-01
4.156405e-01
4.125147e-01
4.129935e-01
3.931200e-01
4.006051e-01
4.058116e-01
4.092987e-01
4.114787e-01
4.143925e-01
4.082932e-01
4.092664e-01
4.046803e-01
4.000390e-01
3.101087e-01
2.993542e-01
2.846255e-01
4.154673e-01
4.112415e-01
4.049408e-01
4.006392e-01
3.950937e-01
3.106487e-01
2.952823e-01
2.786205e-01
2.834819e-01
4.093118e-01
4.071058e-01
4.031776e-01
4.028925e-01
3.960590e-01
3.945540e-01
3.965802e-01
3.893875e-01
3.813651e-01
3.840999e-01
3.874132e-01
3.894320e-01
3.731910e-01
3.771980e-01
3.809457e-01
3.791016e-01
3.517350e-01
3.429202e-01
3.362835e-01
3.295548e-01
3.215895e-01
3.119962e-01
3.012628e-01
2.929897e-01
2.832502e-01
2.994140e-01
3.048166e-01
3.145233e-01
3.151604e-01
3.312426e-01
3.273068e-01
3.243413e-01
3.410388e-01
3.366804e-01
3.330106e-01
3.405190e-01
3.542234e-01
3.489500e-01
3.444667e-01
3.659511e-01
3.608205e-01
3.554827e-01
3.512896e-01
3.475738e-01
3.720603e-01
3.549883e-01
3.625523e-01
3.656474e-01
4.134231e-01
2.816816e-01
4.154928e-01
4.153667e-01
4.140456e-01
4.116144e-01
4.161901e-01
4.074195e-01
4.055714e-01
4.029465e-01
3.759239e-01
3.823880e-01
3.911264e-01
3.985051e-01
4.040008e-01
4.079764e-01
4.109223e-01
4.138187e-01
4.162899e-01
4.150896e-01
4.129854e-01
4.097351e-01
3.937612e-01
4.160605e-01
4.145241e-01
4.122883e-01
4.089685e-01
4.051426e-01
4.015715e-01
3.979947e-01
4.164472e-01
4.156377e-01
4.134898e-01
4.118437e-01
4.077816e-01
4.035820e-01
3.998325e-01
3.968506e-01
3.908915e-01
3.854489e-01
2.856513e-01
2.772830e-01
3.172103e-01
3.075341e-01
2.960323e-01
2.846704e-01
3.197619e-01
3.033566e-01
3.558413e-01
3.494948e-01
3.396594e-01
3.253589e-01
3.130539e-01
3.014010e-01
2.900122e-01
2.799758e-01
3.401710e-01
3.285681e-01
4.073430e-01
4.019158e-01
3.957986e-01
3.878832e-01
3.782671e-01
3.667158e-01
3.540482e-01
4.162141e-01
4.148782e-01
4.117813e-01
4.070802e-01
4.010559e-01
3.929046e-01
3.841672e-01
3.740043e-01
3.627465e-01
3.532945e-01
3.421283e-01
3.306994e-01
3.184284e-01
3.013994e-01
2.864193e-01
3.679698e-01
3.600326e-01
3.511047e-01
3.405872e-01
3.290127e-01
3.174743e-01
3.058554e-01
2.942362e-01
2.834014e-01
2.788828e-01
3.977360e-01
3.914421e-01
3.827052e-01
3.719087e-01
3.030423e-01
2.977867e-01
2.838738e-01
3.568844e-01
3.430963e-01
3.281570e-01
3.135788e-01
2.983306e-01
2.852504e-01
4.072598e-01
4.018668e-01
3.955098e-01
3.870489e-01
3.773162e-01
3.663410e-01
3.542503e-01
3.403792e-01
3.262120e-01
3.128307e-01
4.161025e-01
4.147450e-01
4.117712e-01
4.076880e-01
4.015154e-01
3.917023e-01
3.823857e-01
3.718255e-01
3.602331e-01
3.492929e-01
4.161243e-01
4.139744e-01
4.109105e-01