VARIABLES = "X" "Y" "Z" "FREF"
ZONE T="instant 065"
STRANDID=0, SOLUTIONTIME=0
Nodes=3151, Elements=6298
ZONETYPE=FETriangle
DATAPACKING=BLOCK
VARLOCATION = ([1-3]=NODAL, [4]=CELLCENTERED)
5.000000e-01
2.107586e-01
2.317683e-01
2.492018e-01
2.643698e-01
2.817274e-01
2.996849e-01
3.180793e-01
3.373120e-01
3.569861e-01
3.758794e-01
3.928748e-01
4.085292e-01
4.230986e-01
4.364169e-01
4.481215e-01
4.579973e-01
4.655092e-01
4.723726e-01
4.795235e-01
4.857689e-01
4.907462e-01
4.944283e-01
4.971319e-01
4.988841e-01
4.997918e-01
1.940000e-01
1.940000e-01
1.940000e-01
1.940000e-01
1.940000e-01
1.940000e-01
1.940000e-01
1.940000e-01
1.940000e-01
1.940000e-01
1.940000e-01
1.940000e-01
3.433258e-01
3.418588e-01
3.383209e-01
3.326210e-01
3.257392e-01
3.208502e-01
3.146211e-01
3.065726e-01
2.987088e-01
2.911473e-01
2.828903e-01
2.732181e-01
2.652016e-01
2.575178e-01
2.500398e-01
2.405818e-01
2.311276e-01
2.240630e-01
2.151773e-01
2.049764e-01
3.440000e-01
4.862834e-01
4.709194e-01
4.568612e-01
4.427641e-01
4.273604e-01
4.114054e-01
3.965234e-01
3.822430e-01
3.679075e-01
3.551326e-01
3.817190e-01
2.380572e-01
2.268299e-01
3.939656e-01
3.738918e-01
2.430389e-01
2.534325e-01
2.341271e-01
2.560453e-01
2.143391e-01
2.571770e-01
2.435644e-01
2.619030e-01
2.735311e-01
4.874066e-01
2.873799e-01
3.030361e-01
2.802610e-01
2.907020e-01
3.334351e-01
3.450528e-01
3.794371e-01
3.599358e-01
3.616172e-01
3.891083e-01
3.992062e-01
3.796133e-01
4.816669e-01
4.729614e-01
3.907053e-01
4.071082e-01
4.001689e-01
4.171561e-01
4.112934e-01
4.216580e-01
3.542509e-01
3.766745e-01
3.654555e-01
3.477643e-01
2.347097e-01
2.202784e-01
2.089415e-01
2.123760e-01
2.120789e-01
2.295689e-01
2.465424e-01
2.129471e-01
2.302868e-01
2.474269e-01
2.646647e-01
2.042916e-01
2.161102e-01
2.317126e-01
2.487864e-01
4.844863e-01
2.657642e-01
2.825274e-01
2.837121e-01
3.004940e-01
2.864070e-01
3.007138e-01
3.180423e-01
2.113620e-01
2.305941e-01
2.492610e-01
2.686784e-01
2.605942e-01
2.607733e-01
2.706569e-01
2.797607e-01
2.991760e-01
3.140189e-01
3.239975e-01
3.363395e-01
2.114155e-01
2.287958e-01
2.473795e-01
2.682555e-01
2.839620e-01
2.977539e-01
3.139024e-01
2.999640e-01
3.114596e-01
3.162797e-01
3.291270e-01
3.426236e-01
3.582817e-01
2.758228e-01
2.894684e-01
3.033982e-01
3.291398e-01
4.796052e-01
4.704997e-01
4.641056e-01
4.561808e-01
3.441897e-01
3.593245e-01
3.755815e-01
2.813008e-01
3.165458e-01
3.305457e-01
3.453756e-01
3.595289e-01
3.748647e-01
3.912479e-01
2.954289e-01
3.098848e-01
3.248226e-01
3.325692e-01
3.472951e-01
3.635070e-01
4.743624e-01
4.641591e-01
4.553174e-01
4.477513e-01
4.393026e-01
3.736463e-01
3.887688e-01
4.054300e-01
3.445868e-01
3.619941e-01
3.832112e-01
4.008309e-01
4.184106e-01
2.998283e-01
3.141338e-01
3.290880e-01
3.450465e-01
3.792245e-01
3.964201e-01
4.135294e-01
4.306953e-01
3.611777e-01
3.772720e-01
3.931320e-01
4.094757e-01
4.254742e-01
4.419623e-01
4.308485e-01
4.416525e-01
3.161878e-01
3.306601e-01
3.458221e-01
3.616104e-01
3.774108e-01
3.924363e-01
4.057051e-01
4.223219e-01
4.363717e-01
4.524631e-01
4.021640e-01
4.088723e-01
4.680081e-01
4.575072e-01
4.483102e-01
4.396523e-01
4.318832e-01
4.244290e-01
4.150994e-01
4.157042e-01
4.236673e-01
4.323708e-01
4.401109e-01
4.497592e-01
4.606545e-01
1.940000e-01
4.997055e-01
4.979196e-01
4.949190e-01
4.908976e-01
4.844115e-01
4.768954e-01
4.672372e-01
4.552231e-01
4.404756e-01
4.252603e-01
4.113925e-01
3.964525e-01
3.808818e-01
3.643496e-01
3.498952e-01
3.377064e-01
3.254248e-01
3.116436e-01
2.968600e-01
2.818313e-01
2.667266e-01
2.514250e-01
2.361582e-01
2.209632e-01
2.065411e-01
5.000000e-01
3.549636e-01
3.678704e-01
3.819381e-01
3.972947e-01
4.120147e-01
4.263469e-01
4.416580e-01
4.581306e-01
4.737338e-01
4.880090e-01
3.440000e-01
2.039257e-01
2.137250e-01
2.255671e-01
2.396079e-01
2.505145e-01
2.608416e-01
2.708837e-01
2.806168e-01
2.888770e-01
2.950220e-01
3.029693e-01
3.101634e-01
3.158468e-01
3.204024e-01
3.247300e-01
3.306208e-01
3.349667e-01
3.374502e-01
3.397363e-01
3.419388e-01
3.435279e-01
1.940000e-01
1.940000e-01
1.940000e-01
1.940000e-01
1.940000e-01
1.940000e-01
1.940000e-01
1.940000e-01
1.940000e-01
1.940000e-01
1.940000e-01
3.826718e-01
4.089219e-01
2.290583e-01
2.587668e-01
2.494165e-01
3.534213e-01
3.592089e-01
3.718526e-01
3.709188e-01
3.880080e-01
3.884923e-01
3.956930e-01
3.787806e-01
4.285256e-01
2.084645e-01
4.168563e-01
3.988354e-01
4.193826e-01
3.866229e-01
4.104534e-01
3.993039e-01
4.250219e-01
4.138856e-01
2.116587e-01
2.601483e-01
2.317122e-01
2.241067e-01
2.124573e-01
2.540381e-01
2.788595e-01
2.442943e-01
2.779181e-01
2.632636e-01
2.869132e-01
2.741132e-01
2.967144e-01
3.080627e-01
2.186730e-01
3.559711e-01
2.102682e-01
2.209980e-01
2.382723e-01
3.477609e-01
3.609702e-01
3.713972e-01
4.841280e-01
4.680690e-01
4.768634e-01
4.808585e-01
4.450358e-01
4.527584e-01
4.593471e-01
4.651896e-01
2.389198e-01
2.270931e-01
2.105430e-01
4.735319e-01
4.424509e-01
4.486017e-01
4.548470e-01
4.678386e-01
4.329306e-01
4.360869e-01
4.532315e-01
4.600750e-01
3.472723e-01
3.539883e-01
3.632823e-01
4.171441e-01
4.296949e-01
4.457112e-01
4.040327e-01
4.198632e-01
4.254119e-01
4.325164e-01
4.370092e-01
4.396671e-01
4.433928e-01
3.342586e-01
3.705808e-01
3.843204e-01
4.018422e-01
4.111164e-01
4.224735e-01
4.325532e-01
3.386293e-01
3.437379e-01
3.526015e-01
3.913690e-01
4.025388e-01
2.541866e-01
2.428169e-01
4.112816e-01
4.191147e-01
3.206959e-01
3.595245e-01
3.688932e-01
3.842673e-01
3.917677e-01
3.987523e-01
4.052903e-01
3.257923e-01
3.298295e-01
3.378300e-01
3.713588e-01
3.795879e-01
3.853883e-01
3.911228e-01
3.422571e-01
2.684733e-01
2.554250e-01
2.409870e-01
2.256849e-01
2.092481e-01
3.480752e-01
3.616064e-01
3.664552e-01
3.711889e-01
3.763186e-01
3.033158e-01
3.087557e-01
3.125981e-01
3.205623e-01
3.470059e-01
3.517587e-01
3.566843e-01
3.612633e-01
3.232404e-01
3.273185e-01
3.314272e-01
3.377273e-01
3.428570e-01
3.458809e-01
2.116157e-01
2.292383e-01
2.503902e-01
2.666470e-01
2.817622e-01
2.973208e-01
3.124987e-01
2.822659e-01
2.858747e-01
2.988290e-01
3.022950e-01
3.039348e-01
3.105220e-01
3.176217e-01
3.266022e-01
3.273392e-01
3.289834e-01
2.831119e-01
2.697935e-01
2.565040e-01
2.427283e-01
2.272867e-01
2.108957e-01
2.864033e-01
2.988792e-01
3.124963e-01
2.608269e-01
2.721465e-01
2.845200e-01
2.978960e-01
5.000000e-01
5.000000e-01
5.000000e-01
5.000000e-01
5.000000e-01
5.000000e-01
5.000000e-01
5.000000e-01
5.000000e-01
5.000000e-01
5.000000e-01
5.000000e-01
5.000000e-01
5.000000e-01
5.000000e-01
5.000000e-01
5.000000e-01
5.000000e-01
5.000000e-01
5.000000e-01
5.000000e-01
5.000000e-01
5.000000e-01
5.000000e-01
5.000000e-01
5.000000e-01
5.000000e-01
5.000000e-01
5.000000e-01
5.000000e-01
5.000000e-01
5.000000e-01
5.000000e-01
1.940000e-01
1.940000e-01
1.940000e-01
1.940000e-01
1.940000e-01
1.940000e-01
1.940000e-01
1.940000e-01
1.940000e-01
1.940000e-01
1.940000e-01
1.940000e-01
1.940000e-01
1.940000e-01
1.940000e-01
1.940000e-01
1.940000e-01
1.940000e-01
1.940000e-01
1.940000e-01
1.940000e-01
1.940000e-01
1.940000e-01
1.940000e-01
1.940000e-01
1.940000e-01
1.940000e-01
1.940000e-01
1.940000e-01
1.940000e-01
1.940000e-01
1.940000e-01
1.940000e-01
3.723598e-01
3.820285e-01
3.781563e-01
3.875298e-01
3.974667e-01
4.211353e-01
4.045469e-01
4.118213e-01
3.395856e-01
3.481880e-01
3.553107e-01
3.564164e-01
3.633429e-01
3.688202e-01
3.737016e-01
3.958828e-01
3.801436e-01
3.720739e-01
3.871567e-01
4.022204e-01
3.645529e-01
3.644303e-01
2.180208e-01
2.085013e-01
3.776728e-01
3.927130e-01
4.078886e-01
3.918957e-01
4.016142e-01
4.116515e-01
4.055880e-01
4.147058e-01
4.185251e-01
4.373303e-01
4.078933e-01
4.192074e-01
4.029833e-01
4.248842e-01
4.109363e-01
3.962762e-01
4.299573e-01
4.167257e-01
4.041495e-01
3.913320e-01
4.293803e-01
4.394535e-01
4.360578e-01
4.262037e-01
4.178908e-01
2.369435e-01
2.252338e-01
2.118181e-01
3.869290e-01
3.963190e-01
4.042628e-01
3.801540e-01
3.892766e-01
3.733673e-01
2.081567e-01
2.189449e-01
2.212887e-01
2.319942e-01
2.348670e-01
2.433924e-01
2.460042e-01
2.489704e-01
2.500048e-01
2.564458e-01
2.601674e-01
2.634458e-01
2.647549e-01
2.704946e-01
2.746171e-01
2.781780e-01
2.736066e-01
2.798399e-01
2.850981e-01
2.893279e-01
2.930766e-01
2.837722e-01
2.894303e-01
2.950742e-01
3.000243e-01
3.042077e-01
3.080383e-01
2.934447e-01
2.545328e-01
2.431040e-01
2.308968e-01
2.181939e-01
2.093489e-01
2.993964e-01
3.050680e-01
3.103979e-01
3.151368e-01
3.191246e-01
3.229307e-01
3.086797e-01
3.150648e-01
3.206352e-01
3.257604e-01
3.303817e-01
3.338811e-01
3.375868e-01
3.171540e-01
3.244248e-01
3.309386e-01
3.360768e-01
3.411062e-01
3.458846e-01
3.480612e-01
3.518543e-01
3.255045e-01
3.330003e-01
3.403770e-01
3.471807e-01
3.510313e-01
3.564307e-01
3.624690e-01
3.605062e-01
3.662095e-01
3.791116e-01
4.156996e-01
3.602429e-01
3.737827e-01
3.886189e-01
2.718396e-01
2.609698e-01
2.494211e-01
2.377038e-01
2.269599e-01
2.164982e-01
4.035575e-01
3.507445e-01
3.655276e-01
3.811052e-01
3.964783e-01
4.101439e-01
4.227561e-01
3.803878e-01
3.890093e-01
3.944524e-01
3.999039e-01
4.046925e-01
4.108032e-01
4.171081e-01
4.232894e-01
4.237634e-01
4.269676e-01
4.305706e-01
4.326127e-01
4.352121e-01
4.384104e-01
4.109282e-01
4.186010e-01
4.251826e-01
4.315529e-01
4.377225e-01
4.427175e-01
4.459427e-01
4.227571e-01
4.260351e-01
4.320189e-01
4.393886e-01
4.450622e-01
4.492957e-01
4.529594e-01
4.352385e-01
4.470002e-01
4.453589e-01
4.540880e-01
4.562011e-01
4.595452e-01
4.631674e-01
4.658983e-01
4.458443e-01
4.589110e-01
4.667455e-01
4.715876e-01
4.560329e-01
4.673310e-01
4.723981e-01
4.765736e-01
4.733044e-01
4.817184e-01
2.895374e-01
2.787813e-01
2.675588e-01
2.561444e-01
2.449010e-01
2.335361e-01
2.203083e-01
2.102693e-01
4.790500e-01
4.865487e-01
4.813860e-01
4.874960e-01
4.939469e-01
4.982505e-01
4.960796e-01
4.932788e-01
4.928633e-01
4.899691e-01
4.884705e-01
4.891173e-01
4.830208e-01
4.838081e-01
4.848133e-01
4.860330e-01
4.765895e-01
4.773567e-01
4.785046e-01
4.799113e-01
4.814971e-01
4.697274e-01
4.710186e-01
4.726254e-01
4.744686e-01
4.764389e-01
4.686004e-01
4.709529e-01
4.608115e-01
4.623344e-01
4.641411e-01
4.662688e-01
4.507631e-01
4.524608e-01
4.544209e-01
4.568333e-01
4.596155e-01
4.624606e-01
4.650689e-01
4.399375e-01
4.415083e-01
4.434468e-01
4.460585e-01
4.493700e-01
4.529753e-01
4.561164e-01
4.584993e-01
4.172391e-01
4.184520e-01
4.296896e-01
4.312910e-01
4.337439e-01
4.377779e-01
4.420752e-01
4.470695e-01
4.481434e-01
4.516550e-01
4.197913e-01
4.305408e-01
4.124670e-01
2.417548e-01
2.654240e-01
2.523313e-01
2.706280e-01
2.642274e-01
2.877758e-01
2.834547e-01
2.768287e-01
3.099329e-01
3.021507e-01
3.075383e-01
2.966252e-01
2.854855e-01
2.742129e-01
2.629038e-01
2.514612e-01
2.395616e-01
2.281845e-01
2.170254e-01
2.957967e-01
2.892159e-01
3.295975e-01
3.216703e-01
3.144901e-01
3.078192e-01
3.012974e-01
3.407239e-01
3.331037e-01
3.261323e-01
3.195209e-01
3.130731e-01
3.591419e-01
3.512911e-01
3.440900e-01
3.373887e-01
3.309445e-01
3.245590e-01
3.765416e-01
3.688623e-01
3.615098e-01
3.547686e-01
3.484032e-01
3.421358e-01
3.357410e-01
3.923870e-01
3.858484e-01
3.782229e-01
3.715013e-01
3.652733e-01
3.592935e-01
3.530756e-01
3.465323e-01
4.054991e-01
4.032648e-01
3.939828e-01
3.874960e-01
3.813116e-01
3.758459e-01
3.700934e-01
3.635384e-01
3.568381e-01
4.461937e-01
4.369841e-01
4.254737e-01
4.125015e-01
3.981299e-01
3.827128e-01
3.666380e-01
4.342906e-01
4.217801e-01
4.077250e-01
3.916026e-01
3.758546e-01
2.087949e-01
2.074017e-01
2.101755e-01
2.243674e-01
2.200581e-01
2.285076e-01
2.400884e-01
2.083982e-01
2.215870e-01
2.336775e-01
2.442500e-01
2.555576e-01
2.093723e-01
2.232071e-01
2.361144e-01
2.481649e-01
2.595165e-01
2.708843e-01
3.257801e-01
3.144597e-01
3.032418e-01
2.920561e-01
2.808194e-01
2.694513e-01
2.578564e-01
2.461929e-01
2.342549e-01
2.208157e-01
2.096345e-01
2.057041e-01
2.132111e-01
2.254847e-01
2.383394e-01
2.508972e-01
2.629802e-01
2.746854e-01
2.861697e-01
2.048599e-01
2.083677e-01
2.196292e-01
2.294639e-01
2.411194e-01
2.534460e-01
2.657803e-01
2.779025e-01
2.898272e-01
3.015363e-01
2.123539e-01
2.233872e-01
2.341875e-01
2.447214e-01
2.562935e-01
2.684193e-01
2.806467e-01
2.927969e-01
3.048875e-01
3.172289e-01
3.307100e-01
2.063562e-01
2.173979e-01
2.274408e-01
2.382795e-01
2.488571e-01
2.594316e-01
2.711419e-01
2.832306e-01
2.954126e-01
3.075449e-01
3.195893e-01
3.317474e-01
3.427326e-01
2.073444e-01
2.196676e-01
2.303679e-01
2.420255e-01
2.531727e-01
2.634741e-01
2.735684e-01
2.858240e-01
2.978360e-01
3.100404e-01
3.221196e-01
3.340267e-01
3.463743e-01
3.558856e-01
2.014252e-01
2.092685e-01
2.208050e-01
2.337607e-01
2.430272e-01
2.572035e-01
2.682576e-01
2.781355e-01
2.866451e-01
3.008845e-01
3.121061e-01
3.245947e-01
3.365106e-01
3.479388e-01
3.622461e-01
3.690317e-01
3.441158e-01
3.321478e-01
3.207349e-01
3.096522e-01
2.985707e-01
2.873465e-01
2.759093e-01
2.642536e-01
2.522741e-01
2.396898e-01
2.269770e-01
2.125699e-01
4.991631e-01
4.997077e-01
4.971689e-01
4.986529e-01
4.996310e-01
4.940940e-01
4.965400e-01
4.983611e-01
4.995595e-01
4.862927e-01
4.901259e-01
4.933672e-01
4.960481e-01
4.981240e-01
4.994960e-01
4.713166e-01
4.798495e-01
4.849778e-01
4.891115e-01
4.926306e-01
4.955764e-01
4.978852e-01
4.994273e-01
4.740683e-01
4.790852e-01
4.838024e-01
4.880811e-01
4.918496e-01
4.950509e-01
4.975933e-01
4.993306e-01
4.617464e-01
4.668620e-01
4.721083e-01
4.774258e-01
4.823932e-01
4.869197e-01
4.909400e-01
4.943814e-01
4.971507e-01
4.991275e-01
4.996350e-01
4.508056e-01
4.578129e-01
4.640145e-01
4.699460e-01
4.755756e-01
4.808032e-01
4.855693e-01
4.898098e-01
4.934357e-01
4.963101e-01
4.982412e-01
4.995134e-01
4.305604e-01
4.397225e-01
4.477158e-01
4.548185e-01
4.614290e-01
4.676809e-01
4.735525e-01
4.789970e-01
4.839653e-01
4.883963e-01
4.922136e-01
4.953341e-01
4.977590e-01
4.993938e-01
4.054585e-01
4.182152e-01
4.282576e-01
4.370286e-01
4.447631e-01
4.519679e-01
3.621763e-01
3.494669e-01
3.377337e-01
3.268918e-01
3.160850e-01
3.050876e-01
2.938351e-01
2.823051e-01
2.704496e-01
2.581788e-01
2.455323e-01
2.323286e-01
2.191741e-01
4.587973e-01
4.652510e-01
4.712999e-01
4.769139e-01
4.820478e-01
4.866702e-01
4.907714e-01
4.943270e-01
4.972937e-01
4.992572e-01
2.080071e-01
2.222873e-01
2.367691e-01
2.514886e-01
2.664232e-01
2.815215e-01
2.967136e-01
3.119159e-01
3.270392e-01
3.420185e-01
3.568801e-01
3.716100e-01
3.861046e-01
4.004820e-01
4.142954e-01
4.273149e-01
4.393621e-01
4.510071e-01
4.626852e-01
4.707881e-01
4.784207e-01
4.866866e-01
4.925153e-01
4.969514e-01
3.937805e-01
4.074248e-01
4.168297e-01
4.261425e-01
4.340588e-01
4.416721e-01
4.490179e-01
4.560046e-01
4.625761e-01
4.687492e-01
4.744860e-01
4.797090e-01
4.845116e-01
4.889678e-01
4.928831e-01
4.969929e-01
4.988570e-01
2.087168e-01
2.236154e-01
2.386974e-01
2.539566e-01
2.693698e-01
2.848920e-01
3.004620e-01
3.160112e-01
3.314754e-01
3.468059e-01
3.619545e-01
3.768466e-01
3.913990e-01
4.055000e-01
4.189873e-01
4.317645e-01
4.437705e-01
4.549978e-01
4.650484e-01
4.739365e-01
4.818564e-01
4.888069e-01
4.943057e-01
4.982481e-01
2.094396e-01
2.249896e-01
2.406721e-01
2.564945e-01
2.724293e-01
2.884249e-01
3.044180e-01
3.203416e-01
3.361294e-01
3.517143e-01
3.670213e-01
3.819635e-01
3.964452e-01
4.103639e-01
4.236219e-01
4.361339e-01
4.478105e-01
4.585391e-01
4.682144e-01
4.768341e-01
4.843449e-01
4.906444e-01
4.955361e-01
4.987885e-01
2.101854e-01
2.264005e-01
2.427446e-01
2.592000e-01
2.757112e-01
2.922120e-01
3.086342e-01
3.249086e-01
3.409645e-01
3.795149e-01
3.662274e-01
3.537890e-01
3.436195e-01
3.332845e-01
3.226190e-01
3.116168e-01
3.002840e-01
2.886182e-01
2.765958e-01
2.642053e-01
2.514006e-01
2.381589e-01
2.237380e-01
2.125147e-01
3.567267e-01
3.721148e-01
3.870422e-01
4.014171e-01
4.151487e-01
4.281512e-01
4.403403e-01
4.516277e-01
4.619320e-01
4.711936e-01
4.793592e-01
4.863478e-01
4.920576e-01
4.963516e-01
4.990617e-01
2.108669e-01
2.278972e-01
2.450456e-01
2.622214e-01
2.793450e-01
2.963480e-01
3.131675e-01
3.297408e-01
3.459998e-01
3.618727e-01
3.772848e-01
3.921522e-01
4.063826e-01
4.198861e-01
4.325859e-01
4.444066e-01
4.552732e-01
4.651231e-01
4.739050e-01
4.815546e-01
4.879955e-01
4.931472e-01
4.969211e-01
4.992272e-01
2.117559e-01
2.298002e-01
2.478526e-01
2.657728e-01
2.834834e-01
3.009343e-01
3.180796e-01
3.348739e-01
3.512592e-01
3.671808e-01
3.825749e-01
3.973478e-01
4.113913e-01
4.246091e-01
4.369505e-01
4.483527e-01
4.587539e-01
4.681054e-01
4.763701e-01
4.834807e-01
4.893796e-01
4.940200e-01
4.973530e-01
4.993456e-01
2.132659e-01
2.324867e-01
2.514631e-01
2.700584e-01
2.882651e-01
3.060675e-01
3.234131e-01
3.403124e-01
3.567272e-01
3.726661e-01
3.880352e-01
4.026908e-01
4.165074e-01
4.293518e-01
4.412648e-01
4.521803e-01
4.620834e-01
4.709081e-01
4.786369e-01
4.851885e-01
4.905679e-01
4.947594e-01
4.977177e-01
4.994467e-01
2.154594e-01
2.362810e-01
2.561392e-01
2.751670e-01
2.938289e-01
3.118958e-01
3.291420e-01
3.459252e-01
3.622730e-01
3.784131e-01
3.937427e-01
4.082470e-01
4.218627e-01
4.341612e-01
4.455116e-01
4.558039e-01
4.653379e-01
4.736204e-01
4.807473e-01
4.866626e-01
4.915967e-01
4.954447e-01
3.958748e-01
3.827061e-01
3.679551e-01
3.597472e-01
3.501234e-01
3.398867e-01
3.292027e-01
3.181207e-01
3.066855e-01
2.949212e-01
2.828260e-01
2.703839e-01
2.576047e-01
2.445983e-01
2.323111e-01
2.190874e-01
4.980831e-01
4.995541e-01
2.201329e-01
2.428992e-01
2.613367e-01
2.809849e-01
3.005959e-01
3.189624e-01
3.350180e-01
3.495664e-01
3.682962e-01
3.847877e-01
3.996967e-01
4.139200e-01
4.281096e-01
4.394244e-01
4.489661e-01
4.589930e-01
4.690396e-01
4.766307e-01
4.823300e-01
4.877846e-01
4.924670e-01
4.962347e-01
4.985921e-01
4.996368e-01
4.996360e-01
4.994763e-01
4.984090e-01
4.996646e-01
4.990984e-01
4.978490e-01
4.962121e-01
4.994832e-01
4.984232e-01
4.970571e-01
4.951774e-01
4.929948e-01
4.991306e-01
4.978197e-01
4.960703e-01
4.939566e-01
4.914526e-01
4.886970e-01
4.995123e-01
4.981525e-01
4.969624e-01
4.950137e-01
4.925826e-01
4.897766e-01
4.866521e-01
4.832789e-01
4.768263e-01
4.993376e-01
4.979065e-01
4.959349e-01
4.937932e-01
4.911068e-01
4.879779e-01
4.845076e-01
4.807803e-01
4.695350e-01
4.996528e-01
4.989911e-01
4.974177e-01
4.952021e-01
4.925373e-01
4.895416e-01
4.860967e-01
4.822622e-01
4.781500e-01
4.738794e-01
4.614216e-01
4.994529e-01
4.983261e-01
4.967079e-01
4.943351e-01
4.913754e-01
4.879705e-01
4.841755e-01
4.799755e-01
4.754256e-01
4.707011e-01
4.659849e-01
4.991021e-01
4.977436e-01
4.958192e-01
4.933012e-01
4.901328e-01
4.864224e-01
4.822614e-01
4.776936e-01
4.727441e-01
4.674258e-01
4.621363e-01
4.570844e-01
4.520359e-01
4.408595e-01
4.995698e-01
4.982861e-01
4.970096e-01
4.949189e-01
4.921626e-01
4.887856e-01
4.848240e-01
4.803585e-01
4.754378e-01
4.701126e-01
4.644382e-01
4.581040e-01
4.524279e-01
4.472683e-01
3.993346e-01
4.112084e-01
4.994198e-01
4.982281e-01
4.963149e-01
4.940102e-01
4.910238e-01
4.873888e-01
4.831650e-01
4.784222e-01
4.732171e-01
4.675231e-01
4.614561e-01
4.552684e-01
4.467382e-01
4.417432e-01
4.371596e-01
4.259553e-01
1.940000e-01
1.940000e-01
1.940000e-01
1.940000e-01
1.940000e-01
1.940000e-01
1.940000e-01
1.940000e-01
1.940000e-01
1.940000e-01
1.940000e-01
1.940000e-01
1.940000e-01
1.940000e-01
1.940000e-01
1.940000e-01
1.940000e-01
1.940000e-01
1.940000e-01
1.940000e-01
1.940000e-01
1.940000e-01
1.940000e-01
1.940000e-01
1.940000e-01
1.940000e-01
1.940000e-01
1.940000e-01
1.940000e-01
1.940000e-01
1.940000e-01
1.940000e-01
1.940000e-01
1.940000e-01
1.940000e-01
1.940000e-01
1.940000e-01
1.940000e-01
1.940000e-01
1.940000e-01
1.940000e-01
1.940000e-01
1.940000e-01
1.940000e-01
1.940000e-01
1.940000e-01
1.940000e-01
1.940000e-01
1.940000e-01
1.940000e-01
1.940000e-01
1.940000e-01
1.940000e-01
1.940000e-01
1.940000e-01
1.940000e-01
1.940000e-01
1.940000e-01
1.940000e-01
1.940000e-01
1.940000e-01
1.940000e-01
1.940000e-01
1.940000e-01
1.940000e-01
1.940000e-01
1.940000e-01
1.940000e-01
1.940000e-01
1.940000e-01
1.940000e-01
1.940000e-01
1.940000e-01
1.940000e-01
1.940000e-01
1.940000e-01
1.940000e-01
1.940000e-01
1.940000e-01
1.940000e-01
1.940000e-01
1.940000e-01
1.940000e-01
1.940000e-01
1.940000e-01
1.940000e-01
1.940000e-01
1.940000e-01
1.940000e-01
1.940000e-01
1.940000e-01
1.940000e-01
1.940000e-01
1.940000e-01
1.940000e-01
1.940000e-01
1.940000e-01
1.940000e-01
1.940000e-01
1.940000e-01
1.940000e-01
1.940000e-01
1.940000e-01
1.940000e-01
1.940000e-01
1.940000e-01
1.940000e-01
1.940000e-01
1.940000e-01
1.940000e-01
1.940000e-01
1.940000e-01
1.940000e-01
1.940000e-01
1.940000e-01
1.940000e-01
1.940000e-01
1.940000e-01
1.940000e-01
1.940000e-01
1.940000e-01
1.940000e-01
1.940000e-01
1.940000e-01
1.940000e-01
1.940000e-01
1.940000e-01
1.940000e-01
1.940000e-01
1.940000e-01
1.940000e-01
1.940000e-01
1.940000e-01
1.940000e-01
1.940000e-01
1.940000e-01
1.940000e-01
1.940000e-01
1.940000e-01
1.940000e-01
1.940000e-01
1.940000e-01
1.940000e-01
1.940000e-01
1.940000e-01
1.940000e-01
1.940000e-01
1.940000e-01
1.940000e-01
1.940000e-01
1.940000e-01
1.940000e-01
1.940000e-01
1.940000e-01
1.940000e-01
1.940000e-01
1.940000e-01
1.940000e-01
1.940000e-01
1.940000e-01
1.940000e-01
1.940000e-01
1.940000e-01
1.940000e-01
1.940000e-01
1.940000e-01
1.940000e-01
1.940000e-01
1.940000e-01
1.940000e-01
1.940000e-01
1.940000e-01
1.940000e-01
1.940000e-01
1.940000e-01
1.940000e-01
1.940000e-01
1.940000e-01
1.940000e-01
1.940000e-01
1.940000e-01
1.940000e-01
1.940000e-01
1.940000e-01
1.940000e-01
1.940000e-01
1.940000e-01
1.940000e-01
1.940000e-01
1.940000e-01
1.940000e-01
1.940000e-01
1.940000e-01
1.940000e-01
1.940000e-01
1.940000e-01
1.940000e-01
1.940000e-01
1.940000e-01
1.940000e-01
1.940000e-01
1.940000e-01
1.940000e-01
1.940000e-01
1.940000e-01
1.940000e-01
1.940000e-01
1.940000e-01
1.940000e-01
1.940000e-01
1.940000e-01
1.940000e-01
1.940000e-01
1.940000e-01
1.940000e-01
1.940000e-01
1.940000e-01
1.940000e-01
1.940000e-01
1.940000e-01
1.940000e-01
1.940000e-01
1.940000e-01
1.940000e-01
1.940000e-01
1.940000e-01
1.940000e-01
1.940000e-01
1.940000e-01
1.940000e-01
1.940000e-01
1.940000e-01
1.940000e-01
1.940000e-01
1.940000e-01
1.940000e-01
1.940000e-01
1.940000e-01
1.940000e-01
1.940000e-01
1.940000e-01
1.940000e-01
1.940000e-01
1.940000e-01
1.940000e-01
1.940000e-01
1.940000e-01
1.940000e-01
1.940000e-01
1.940000e-01
1.940000e-01
1.940000e-01
1.940000e-01
1.940000e-01
1.940000e-01
1.940000e-01
1.940000e-01
1.940000e-01
1.940000e-01
1.940000e-01
1.940000e-01
1.940000e-01
1.940000e-01
1.940000e-01
1.940000e-01
1.940000e-01
1.940000e-01
1.940000e-01
1.940000e-01
1.940000e-01
1.940000e-01
1.940000e-01
1.940000e-01
1.940000e-01
1.940000e-01
1.940000e-01
1.940000e-01
1.940000e-01
1.940000e-01
1.940000e-01
1.940000e-01
1.940000e-01
1.940000e-01
1.940000e-01
1.940000e-01
1.940000e-01
1.940000e-01
1.940000e-01
1.940000e-01
1.940000e-01
1.940000e-01
1.940000e-01
1.940000e-01
1.940000e-01
1.940000e-01
1.940000e-01
1.940000e-01
1.940000e-01
1.940000e-01
1.940000e-01
1.940000e-01
1.940000e-01
1.940000e-01
1.940000e-01
1.940000e-01
1.940000e-01
1.940000e-01
1.940000e-01
1.940000e-01
1.940000e-01
1.940000e-01
1.940000e-01
1.940000e-01
1.940000e-01
1.940000e-01
1.940000e-01
1.940000e-01
1.940000e-01
1.940000e-01
1.940000e-01
1.940000e-01
1.940000e-01
1.940000e-01
1.940000e-01
1.940000e-01
1.940000e-01
1.940000e-01
1.940000e-01
1.940000e-01
1.940000e-01
1.940000e-01
1.940000e-01
1.940000e-01
1.940000e-01
1.940000e-01
1.940000e-01
1.940000e-01
1.940000e-01
1.940000e-01
1.940000e-01
1.940000e-01
1.940000e-01
1.940000e-01
1.940000e-01
1.940000e-01
1.940000e-01
1.940000e-01
1.940000e-01
1.940000e-01
1.940000e-01
1.940000e-01
1.940000e-01
1.940000e-01
1.940000e-01
1.940000e-01
1.940000e-01
1.940000e-01
1.940000e-01
1.940000e-01
1.940000e-01
1.940000e-01
1.940000e-01
1.940000e-01
1.940000e-01
1.940000e-01
1.940000e-01
1.940000e-01
1.940000e-01
1.940000e-01
1.940000e-01
3.440000e-01
3.440000e-01
3.440000e-01
3.440000e-01
3.440000e-01
3.440000e-01
3.440000e-01
3.440000e-01
3.440000e-01
3.440000e-01
3.440000e-01
3.440000e-01
3.440000e-01
3.440000e-01
3.440000e-01
3.440000e-01
3.440000e-01
3.440000e-01
3.440000e-01
3.440000e-01
3.440000e-01
3.440000e-01
3.440000e-01
3.440000e-01
3.440000e-01
3.440000e-01
3.440000e-01
3.440000e-01
3.440000e-01
3.440000e-01
3.440000e-01
3.440000e-01
3.440000e-01
3.028182e-01
2.968340e-01
3.125332e-01
3.016161e-01
3.058370e-01
2.937995e-01
2.926010e-01
2.877003e-01
2.834232e-01
3.005409e-01
2.934158e-01
2.875997e-01
2.973676e-01
2.857760e-01
2.939383e-01
2.164416e-01
3.425341e-01
3.401994e-01
3.351765e-01
3.373051e-01
3.356469e-01
3.311919e-01
3.357104e-01
3.327485e-01
3.297399e-01
3.299104e-01
3.262595e-01
3.224181e-01
3.260820e-01
3.222377e-01
3.184101e-01
3.139165e-01
3.400944e-01
3.216025e-01
3.173890e-01
3.131029e-01
3.105059e-01
3.043426e-01
2.986185e-01
3.036041e-01
2.926545e-01
3.173800e-01
3.084700e-01
3.428276e-01
2.979546e-01
2.851432e-01
2.932832e-01
2.874930e-01
2.815693e-01
2.767883e-01
2.740913e-01
2.797042e-01
2.737095e-01
2.687648e-01
2.649042e-01
2.712847e-01
2.641076e-01
2.594738e-01
2.552342e-01
2.526346e-01
2.489483e-01
2.449319e-01
2.377006e-01
2.338697e-01
2.208514e-01
2.636169e-01
2.476684e-01
2.343061e-01
2.235606e-01
2.107759e-01
3.352265e-01
3.313104e-01
3.434193e-01
3.413891e-01
3.425743e-01
3.381835e-01
3.398295e-01
3.361097e-01
3.317053e-01
3.362152e-01
3.394651e-01
3.423675e-01
2.410466e-01
2.289046e-01
2.122044e-01
2.402065e-01
2.238103e-01
2.063054e-01
3.349923e-01
3.310877e-01
3.433577e-01
3.412755e-01
3.424546e-01
3.380823e-01
3.396547e-01
3.358879e-01
3.314575e-01
2.400839e-01
2.283204e-01
2.128985e-01
2.411756e-01
2.243680e-01
2.064258e-01
3.433076e-01
3.411259e-01
3.422629e-01
3.378554e-01
3.393195e-01
3.355697e-01
3.313826e-01
2.418438e-01
2.293707e-01
2.128864e-01
3.431123e-01
3.403089e-01
3.374202e-01
3.352722e-01
3.325941e-01
3.314714e-01
3.247211e-01
2.412486e-01
2.259433e-01
2.074363e-01
2.672450e-01
2.533437e-01
2.383227e-01
2.202544e-01
2.062042e-01
3.354869e-01
3.317233e-01
3.433835e-01
3.413298e-01
3.424636e-01
3.381296e-01
3.396908e-01
3.358328e-01
3.314403e-01
2.433010e-01
2.307896e-01
2.139191e-01
2.408364e-01
2.249431e-01
3.224855e-01
3.295948e-01
3.343450e-01
3.380437e-01
2.068006e-01
3.433286e-01
3.412978e-01
3.383678e-01
2.429972e-01
2.304316e-01
2.128668e-01
3.333181e-01
3.289997e-01
3.431063e-01
3.406831e-01
3.420160e-01
3.371480e-01
3.386292e-01
3.324281e-01
3.340302e-01
3.264475e-01
3.289254e-01
2.625214e-01
2.495192e-01
2.363705e-01
2.234339e-01
2.091222e-01
2.360244e-01
2.208322e-01
2.051167e-01
3.430777e-01
3.404213e-01
3.416340e-01
3.366091e-01
3.383061e-01
3.343003e-01
3.297865e-01
3.116871e-01
2.381902e-01
2.269325e-01
2.111703e-01
3.434740e-01
3.407917e-01
3.370517e-01
3.343450e-01
3.315379e-01
3.302313e-01
3.228747e-01
2.391650e-01
2.237712e-01
2.064677e-01
2.644917e-01
2.509592e-01
2.364318e-01
2.189707e-01
2.055157e-01
3.339766e-01
3.298317e-01
3.431803e-01
3.408273e-01
3.421531e-01
3.373579e-01
3.389633e-01
3.346244e-01
3.298254e-01
2.410198e-01
2.288728e-01
2.126891e-01
2.377365e-01
2.227330e-01
2.058179e-01
3.341084e-01
3.300234e-01
3.431852e-01
3.031620e-01
3.407456e-01
3.421202e-01
3.371449e-01
3.389780e-01
3.348913e-01
3.301927e-01
2.386340e-01
2.265281e-01
2.110307e-01
2.363601e-01
2.215745e-01
2.052571e-01
3.431298e-01
3.405624e-01
3.417364e-01
3.369336e-01
3.381174e-01
3.333182e-01
3.284275e-01
2.373248e-01
2.259389e-01
2.102685e-01
3.429056e-01
3.408728e-01
3.381563e-01
3.323011e-01
3.331175e-01
3.278423e-01
3.245147e-01
2.366205e-01
2.214887e-01
2.051897e-01
2.672083e-01
2.541166e-01
2.351251e-01
2.216285e-01
2.090905e-01
3.429971e-01
3.399404e-01
3.406585e-01
3.204032e-01
3.272787e-01
3.324534e-01
3.363239e-01
3.388000e-01
3.418666e-01
3.356155e-01
3.367515e-01
3.319010e-01
3.268610e-01
2.363900e-01
2.250695e-01
2.102726e-01
3.429587e-01
3.388198e-01
3.323225e-01
3.276612e-01
3.217007e-01
2.366865e-01
2.214011e-01
2.051172e-01
2.088376e-01
3.367175e-01
3.342825e-01
3.302301e-01
3.297393e-01
3.231121e-01
3.215452e-01
3.235035e-01
3.161995e-01
3.078410e-01
3.108990e-01
3.144975e-01
3.165606e-01
2.996256e-01
3.041078e-01
3.081138e-01
3.067255e-01
2.799241e-01
2.705438e-01
2.634078e-01
2.561918e-01
2.478653e-01
2.379144e-01
2.271128e-01
2.191825e-01
2.093868e-01
2.256744e-01
2.310707e-01
2.407560e-01
2.415103e-01
2.572136e-01
2.534599e-01
2.505656e-01
2.671147e-01
2.629513e-01
2.594698e-01
2.673154e-01
2.801871e-01
2.752425e-01
2.709955e-01
2.918455e-01
2.872254e-01
2.821462e-01
2.781477e-01
2.747905e-01
3.001017e-01
2.825913e-01
2.904484e-01
2.940147e-01
3.407071e-01
2.079339e-01
3.426867e-01
3.424979e-01
3.410901e-01
3.387233e-01
3.433859e-01
3.338087e-01
3.315972e-01
3.285167e-01
3.042536e-01
3.104959e-01
3.184021e-01
3.252920e-01
3.308225e-01
3.350613e-01
3.383692e-01
3.414185e-01
3.434406e-01
3.421400e-01
3.398383e-01
3.363662e-01
3.172110e-01
3.432095e-01
3.415056e-01
3.390138e-01
3.353557e-01
3.310627e-01
3.269026e-01
3.226059e-01
3.436432e-01
3.427409e-01
3.403507e-01
3.384962e-01
3.339446e-01
3.292672e-01
3.249514e-01
3.214006e-01
3.144409e-01
3.079751e-01
2.128387e-01
2.041952e-01
2.397773e-01
2.311610e-01
2.201181e-01
2.095733e-01
2.419354e-01
2.279377e-01
2.756805e-01
2.701532e-01
2.607569e-01
2.476707e-01
2.364210e-01
2.255986e-01
2.149539e-01
2.059402e-01
2.606035e-01
2.505552e-01
3.333402e-01
3.273119e-01
3.206357e-01
3.121384e-01
3.020397e-01
2.902940e-01
2.775572e-01
3.433551e-01
3.418127e-01
3.383848e-01
3.330958e-01
3.263635e-01
3.175856e-01
3.082217e-01
2.976995e-01
2.864940e-01
2.768212e-01
2.654043e-01
2.545722e-01
2.424068e-01
2.262434e-01
2.118966e-01
2.880944e-01
2.810169e-01
2.723990e-01
2.620870e-01
2.513924e-01
2.408531e-01
2.302309e-01
2.197243e-01
2.094006e-01
2.052055e-01
3.227386e-01
3.158909e-01
3.066586e-01
2.954434e-01
2.286237e-01
2.231474e-01
2.100270e-01
2.804884e-01
2.670394e-01
2.527694e-01
2.380331e-01
2.229354e-01
2.100588e-01
3.332188e-01
3.271880e-01
3.203035e-01
3.113445e-01
3.011821e-01
2.899209e-01
2.776854e-01
2.640984e-01
2.509166e-01
2.372828e-01
3.432275e-01
3.416905e-01
3.383669e-01
3.336950e-01
3.267227e-01
3.163410e-01
3.064561e-01
2.955483e-01
2.838846e-01
2.728155e-01
3.432166e-01
3.408038e-01
3.373749e-01