VARIABLES = "X" "Y" "Z" "FREF"
ZONE T="instant 043"
STRANDID=0, SOLUTIONTIME=0
Nodes=3151, Elements=6298
ZONETYPE=FETriangle
DATAPACKING=BLOCK
VARLOCATION = ([1-3]=NODAL, [4]=CELLCENTERED)
5.000000e-01
1.508249e-01
1.673275e-01
1.832228e-01
1.986804e-01
2.167057e-01
2.363843e-01
2.575394e-01
2.802089e-01
3.039275e-01
3.278798e-01
3.508432e-01
3.726529e-01
3.935869e-01
4.128186e-01
4.295222e-01
4.434029e-01
4.538887e-01
4.633435e-01
4.729471e-01
4.812502e-01
4.878635e-01
4.927705e-01
4.963318e-01
4.985947e-01
4.997355e-01
1.368000e-01
1.368000e-01
1.368000e-01
1.368000e-01
1.368000e-01
1.368000e-01
1.368000e-01
1.368000e-01
1.368000e-01
1.368000e-01
1.368000e-01
1.368000e-01
2.861195e-01
2.845521e-01
2.809480e-01
2.752641e-01
2.685564e-01
2.633408e-01
2.567410e-01
2.481641e-01
2.397262e-01
2.315098e-01
2.228548e-01
2.128068e-01
2.044927e-01
1.962430e-01
1.884306e-01
1.789540e-01
1.695753e-01
1.625315e-01
1.543288e-01
1.456646e-01
2.868000e-01
4.807613e-01
4.570418e-01
4.364946e-01
4.159270e-01
3.921985e-01
3.689705e-01
3.491970e-01
3.310691e-01
3.136944e-01
2.991698e-01
3.328332e-01
1.721453e-01
1.623640e-01
3.460867e-01
3.242678e-01
1.771327e-01
1.865168e-01
1.692012e-01
1.891596e-01
1.527171e-01
1.898425e-01
1.771759e-01
1.938267e-01
2.060110e-01
4.824727e-01
2.194861e-01
2.372937e-01
2.125099e-01
2.248853e-01
2.774721e-01
2.902131e-01
3.273211e-01
3.067693e-01
3.093471e-01
3.393413e-01
3.551412e-01
3.317904e-01
4.743593e-01
4.618010e-01
3.453029e-01
3.672076e-01
3.597379e-01
3.816640e-01
3.775532e-01
3.898606e-01
2.979598e-01
3.238944e-01
3.101514e-01
2.918640e-01
1.718989e-01
1.579621e-01
1.503904e-01
1.516811e-01
1.511794e-01
1.657961e-01
1.813247e-01
1.515744e-01
1.662136e-01
1.819120e-01
1.988073e-01
1.449353e-01
1.548077e-01
1.677013e-01
1.828592e-01
4.784779e-01
1.991080e-01
2.172598e-01
2.171684e-01
2.367606e-01
2.190202e-01
2.357179e-01
2.569283e-01
1.516275e-01
1.670373e-01
1.832468e-01
2.005423e-01
1.981050e-01
1.951638e-01
2.044254e-01
2.131046e-01
2.332206e-01
2.499090e-01
2.615658e-01
2.777359e-01
1.496406e-01
1.643341e-01
1.808976e-01
1.997412e-01
2.163336e-01
2.319435e-01
2.511239e-01
2.349803e-01
2.481341e-01
2.530744e-01
2.681591e-01
2.844962e-01
3.044379e-01
2.123515e-01
2.257214e-01
2.400320e-01
2.693843e-01
4.715875e-01
4.584763e-01
4.480415e-01
4.358276e-01
2.874644e-01
3.063280e-01
3.275736e-01
2.203703e-01
2.546859e-01
2.712453e-01
2.898896e-01
3.074279e-01
3.271348e-01
3.490633e-01
2.339428e-01
2.490103e-01
2.658049e-01
2.744182e-01
2.925989e-01
3.137567e-01
4.642366e-01
4.490953e-01
4.358452e-01
4.234561e-01
4.096705e-01
3.264608e-01
3.463421e-01
3.690423e-01
2.899795e-01
3.118345e-01
3.398362e-01
3.634226e-01
3.875452e-01
2.401705e-01
2.546958e-01
2.711569e-01
2.899731e-01
3.342546e-01
3.574717e-01
3.809269e-01
4.049002e-01
3.105527e-01
3.316975e-01
3.529580e-01
3.753654e-01
3.977147e-01
4.208565e-01
4.041343e-01
4.203026e-01
2.582085e-01
2.734445e-01
2.910056e-01
3.106394e-01
3.317722e-01
3.523900e-01
3.703367e-01
3.936439e-01
4.133566e-01
4.360251e-01
3.567989e-01
3.662127e-01
4.558376e-01
4.400060e-01
4.258814e-01
4.127508e-01
4.001156e-01
3.877607e-01
3.745331e-01
3.774163e-01
3.899379e-01
4.028965e-01
4.153555e-01
4.301943e-01
4.463860e-01
1.368000e-01
4.996283e-01
4.976220e-01
4.941201e-01
4.891396e-01
4.812192e-01
4.719168e-01
4.601094e-01
4.456667e-01
4.273513e-01
4.079802e-01
3.902009e-01
3.707668e-01
3.496231e-01
3.276532e-01
3.089107e-01
2.930112e-01
2.770847e-01
2.594962e-01
2.410446e-01
2.230160e-01
2.057347e-01
1.893179e-01
1.741659e-01
1.602884e-01
1.477970e-01
5.000000e-01
2.992112e-01
3.144271e-01
3.320871e-01
3.524428e-01
3.727326e-01
3.928222e-01
4.141157e-01
4.379647e-01
4.623491e-01
4.835963e-01
2.868000e-01
1.452979e-01
1.537560e-01
1.640221e-01
1.756208e-01
1.859124e-01
1.958613e-01
2.059328e-01
2.159592e-01
2.249048e-01
2.316823e-01
2.404878e-01
2.485604e-01
2.550296e-01
2.603837e-01
2.652666e-01
2.718891e-01
2.769209e-01
2.796890e-01
2.822418e-01
2.846189e-01
2.862936e-01
1.368000e-01
1.368000e-01
1.368000e-01
1.368000e-01
1.368000e-01
1.368000e-01
1.368000e-01
1.368000e-01
1.368000e-01
1.368000e-01
1.368000e-01
3.314440e-01
3.664535e-01
1.695504e-01
1.978249e-01
1.904399e-01
2.954158e-01
3.025805e-01
3.169586e-01
3.160620e-01
3.397683e-01
3.395086e-01
3.487203e-01
3.291759e-01
3.989251e-01
1.490902e-01
3.797657e-01
3.561207e-01
3.854734e-01
3.392308e-01
3.733018e-01
3.577725e-01
3.935709e-01
3.779806e-01
1.532938e-01
1.962369e-01
1.725825e-01
1.626689e-01
1.519086e-01
1.914520e-01
2.177510e-01
1.846217e-01
2.185633e-01
2.051765e-01
2.305544e-01
2.167500e-01
2.420015e-01
2.562570e-01
1.582086e-01
3.001145e-01
1.521563e-01
1.613107e-01
1.762375e-01
2.902949e-01
3.047597e-01
3.186854e-01
4.765055e-01
4.522913e-01
4.653311e-01
4.741064e-01
4.187315e-01
4.297268e-01
4.401538e-01
4.506581e-01
1.767727e-01
1.650712e-01
1.505676e-01
4.643232e-01
4.156935e-01
4.258305e-01
4.366866e-01
4.566023e-01
4.022435e-01
4.065320e-01
4.350240e-01
4.457549e-01
2.881480e-01
2.969746e-01
3.074457e-01
3.833550e-01
4.009762e-01
4.262363e-01
3.612054e-01
3.838235e-01
3.914320e-01
4.016106e-01
4.099468e-01
4.151808e-01
4.204878e-01
2.748603e-01
3.196899e-01
3.379584e-01
3.629907e-01
3.766492e-01
3.946624e-01
4.124365e-01
2.782315e-01
2.858623e-01
2.957027e-01
3.513869e-01
3.678413e-01
1.923760e-01
1.804065e-01
3.827562e-01
3.965579e-01
2.596323e-01
3.084263e-01
3.223949e-01
3.448575e-01
3.560453e-01
3.682448e-01
3.795687e-01
2.637905e-01
2.710318e-01
2.802102e-01
3.298814e-01
3.420390e-01
3.521075e-01
3.617534e-01
2.905668e-01
2.082583e-01
1.939727e-01
1.790260e-01
1.647946e-01
1.513495e-01
2.997177e-01
3.191817e-01
3.263251e-01
3.346733e-01
3.428343e-01
2.402617e-01
2.453507e-01
2.531669e-01
2.623560e-01
3.013237e-01
3.087580e-01
3.166961e-01
3.233633e-01
2.696845e-01
2.756761e-01
2.832051e-01
2.920247e-01
2.992659e-01
3.037053e-01
1.529577e-01
1.693779e-01
1.898438e-01
2.075905e-01
2.254025e-01
2.434847e-01
2.618896e-01
2.180787e-01
2.222047e-01
2.387046e-01
2.426846e-01
2.483495e-01
2.571026e-01
2.671661e-01
2.785217e-01
2.802488e-01
2.827742e-01
2.252229e-01
2.099412e-01
1.953054e-01
1.815974e-01
1.678223e-01
1.525519e-01
2.297260e-01
2.445802e-01
2.614274e-01
2.005230e-01
2.127651e-01
2.270663e-01
2.430445e-01
5.000000e-01
5.000000e-01
5.000000e-01
5.000000e-01
5.000000e-01
5.000000e-01
5.000000e-01
5.000000e-01
5.000000e-01
5.000000e-01
5.000000e-01
5.000000e-01
5.000000e-01
5.000000e-01
5.000000e-01
5.000000e-01
5.000000e-01
5.000000e-01
5.000000e-01
5.000000e-01
5.000000e-01
5.000000e-01
5.000000e-01
5.000000e-01
5.000000e-01
5.000000e-01
5.000000e-01
5.000000e-01
5.000000e-01
5.000000e-01
5.000000e-01
5.000000e-01
5.000000e-01
1.368000e-01
1.368000e-01
1.368000e-01
1.368000e-01
1.368000e-01
1.368000e-01
1.368000e-01
1.368000e-01
1.368000e-01
1.368000e-01
1.368000e-01
1.368000e-01
1.368000e-01
1.368000e-01
1.368000e-01
1.368000e-01
1.368000e-01
1.368000e-01
1.368000e-01
1.368000e-01
1.368000e-01
1.368000e-01
1.368000e-01
1.368000e-01
1.368000e-01
1.368000e-01
1.368000e-01
1.368000e-01
1.368000e-01
1.368000e-01
1.368000e-01
1.368000e-01
1.368000e-01
3.374569e-01
3.505021e-01
3.453150e-01
3.578867e-01
3.710716e-01
3.952620e-01
3.721945e-01
3.819706e-01
2.942186e-01
3.053948e-01
3.152693e-01
3.160742e-01
3.255463e-01
3.329753e-01
3.392143e-01
3.687069e-01
3.479421e-01
3.368356e-01
3.569250e-01
3.769753e-01
3.269692e-01
3.268550e-01
1.554845e-01
1.477578e-01
3.443374e-01
3.644237e-01
3.845928e-01
3.639736e-01
3.769077e-01
3.900819e-01
3.825060e-01
3.944683e-01
3.996126e-01
4.226366e-01
3.791533e-01
3.938366e-01
3.717865e-01
4.012026e-01
3.821031e-01
3.623845e-01
4.078041e-01
3.893181e-01
3.723815e-01
3.549802e-01
4.056990e-01
4.197406e-01
4.161373e-01
4.017425e-01
3.902089e-01
1.717163e-01
1.613329e-01
1.502482e-01
3.477888e-01
3.604606e-01
3.712275e-01
3.382066e-01
3.502971e-01
3.284650e-01
1.480826e-01
1.565846e-01
1.589436e-01
1.684771e-01
1.715225e-01
1.793553e-01
1.822517e-01
1.856473e-01
1.862898e-01
1.931255e-01
1.973762e-01
2.012964e-01
2.023480e-01
2.087923e-01
2.137121e-01
2.181208e-01
2.124730e-01
2.196232e-01
2.258500e-01
2.311043e-01
2.358785e-01
2.241635e-01
2.310013e-01
2.378261e-01
2.439551e-01
2.493409e-01
2.543311e-01
2.355667e-01
1.882386e-01
1.769208e-01
1.656620e-01
1.547984e-01
1.486360e-01
2.429316e-01
2.500587e-01
2.567703e-01
2.628297e-01
2.681441e-01
2.731772e-01
2.543220e-01
2.623963e-01
2.696470e-01
2.762729e-01
2.822768e-01
2.871550e-01
2.920532e-01
2.652112e-01
2.742650e-01
2.826263e-01
2.895963e-01
2.961378e-01
3.023432e-01
3.057059e-01
3.105680e-01
2.758979e-01
2.854472e-01
2.948900e-01
3.037255e-01
3.092973e-01
3.162097e-01
3.243499e-01
3.219117e-01
3.292687e-01
3.471165e-01
3.961561e-01
3.215180e-01
3.394367e-01
3.597292e-01
2.057488e-01
1.939780e-01
1.823706e-01
1.714347e-01
1.625001e-01
1.533717e-01
3.803266e-01
3.090715e-01
3.284134e-01
3.493150e-01
3.705477e-01
3.888202e-01
4.051437e-01
3.479967e-01
3.599409e-01
3.665263e-01
3.739897e-01
3.804080e-01
3.883582e-01
3.966713e-01
4.052428e-01
4.062896e-01
4.104935e-01
4.151553e-01
4.175247e-01
4.209966e-01
4.251245e-01
3.882321e-01
3.985184e-01
4.070547e-01
4.155531e-01
4.238869e-01
4.303222e-01
4.345611e-01
4.038206e-01
4.083015e-01
4.158768e-01
4.252362e-01
4.329297e-01
4.385464e-01
4.432442e-01
4.199286e-01
4.348122e-01
4.327168e-01
4.440825e-01
4.471147e-01
4.513692e-01
4.556255e-01
4.591250e-01
4.333924e-01
4.499261e-01
4.598963e-01
4.659406e-01
4.462085e-01
4.604939e-01
4.668328e-01
4.719704e-01
4.679660e-01
4.781865e-01
2.246400e-01
2.123881e-01
2.002511e-01
1.887205e-01
1.782125e-01
1.679201e-01
1.564577e-01
1.494925e-01
4.749569e-01
4.839294e-01
4.776951e-01
4.850232e-01
4.927470e-01
4.978883e-01
4.952021e-01
4.916712e-01
4.912078e-01
4.874216e-01
4.857073e-01
4.864635e-01
4.788782e-01
4.797832e-01
4.809219e-01
4.823082e-01
4.708276e-01
4.716322e-01
4.729170e-01
4.745194e-01
4.763489e-01
4.619087e-01
4.633445e-01
4.651895e-01
4.673260e-01
4.696356e-01
4.594857e-01
4.622882e-01
4.503253e-01
4.521204e-01
4.542403e-01
4.567410e-01
4.372226e-01
4.392295e-01
4.415759e-01
4.444707e-01
4.478018e-01
4.512008e-01
4.543700e-01
4.232045e-01
4.248368e-01
4.271208e-01
4.303114e-01
4.343535e-01
4.388229e-01
4.426051e-01
4.456281e-01
3.926501e-01
3.937717e-01
4.092133e-01
4.109067e-01
4.139023e-01
4.188514e-01
4.244163e-01
4.309062e-01
4.320882e-01
4.362822e-01
3.915099e-01
4.060846e-01
3.809022e-01
1.798811e-01
2.040934e-01
1.899375e-01
2.091284e-01
2.015947e-01
2.287948e-01
2.228675e-01
2.147168e-01
2.549516e-01
2.448581e-01
2.448174e-01
2.319154e-01
2.192581e-01
2.071110e-01
1.955695e-01
1.844565e-01
1.734072e-01
1.639055e-01
1.542009e-01
2.364183e-01
2.279806e-01
2.788847e-01
2.685859e-01
2.588932e-01
2.498751e-01
2.412182e-01
2.925773e-01
2.820835e-01
2.723770e-01
2.632107e-01
2.544084e-01
3.164315e-01
3.053711e-01
2.951687e-01
2.856083e-01
2.764639e-01
2.675689e-01
3.393316e-01
3.282756e-01
3.177967e-01
3.080309e-01
2.987497e-01
2.896881e-01
2.806888e-01
3.602941e-01
3.505878e-01
3.398465e-01
3.300474e-01
3.208629e-01
3.119395e-01
3.028879e-01
2.936931e-01
3.774407e-01
3.738158e-01
3.608660e-01
3.512765e-01
3.422835e-01
3.339451e-01
3.252475e-01
3.159012e-01
3.064329e-01
4.283744e-01
4.157497e-01
4.000252e-01
3.821773e-01
3.620019e-01
3.404926e-01
3.187262e-01
4.114533e-01
3.945800e-01
3.751915e-01
3.519855e-01
3.302710e-01
1.493906e-01
1.471952e-01
1.497565e-01
1.628665e-01
1.578017e-01
1.658493e-01
1.777397e-01
1.484308e-01
1.592826e-01
1.705314e-01
1.812410e-01
1.935803e-01
1.492058e-01
1.609430e-01
1.728737e-01
1.849143e-01
1.973133e-01
2.104395e-01
2.661349e-01
2.524026e-01
2.391775e-01
2.265162e-01
2.143371e-01
2.025203e-01
1.909855e-01
1.801166e-01
1.693205e-01
1.576516e-01
1.496807e-01
1.460663e-01
1.521365e-01
1.629335e-01
1.751089e-01
1.877091e-01
2.008110e-01
2.143174e-01
2.281787e-01
1.451817e-01
1.481380e-01
1.577079e-01
1.664802e-01
1.777649e-01
1.903928e-01
2.038367e-01
2.177545e-01
2.321305e-01
2.468538e-01
1.511656e-01
1.608011e-01
1.708977e-01
1.812206e-01
1.933411e-01
2.067438e-01
2.208467e-01
2.354299e-01
2.505461e-01
2.667305e-01
2.840128e-01
1.465629e-01
1.554628e-01
1.644244e-01
1.747432e-01
1.853358e-01
1.965873e-01
2.096795e-01
2.237993e-01
2.384600e-01
2.535422e-01
2.689793e-01
2.848839e-01
2.992718e-01
1.471325e-01
1.574008e-01
1.669558e-01
1.783965e-01
1.898530e-01
2.009326e-01
2.122896e-01
2.266360e-01
2.413415e-01
2.564761e-01
2.719122e-01
2.874025e-01
3.035065e-01
3.164428e-01
1.421978e-01
1.484426e-01
1.582729e-01
1.701297e-01
1.791499e-01
1.942188e-01
2.062975e-01
2.174706e-01
2.274365e-01
2.447439e-01
2.590472e-01
2.748331e-01
2.904600e-01
3.054835e-01
3.243086e-01
3.337847e-01
2.883278e-01
2.735850e-01
2.597724e-01
2.467236e-01
2.341235e-01
2.218172e-01
2.097446e-01
1.979600e-01
1.863766e-01
1.748026e-01
1.641237e-01
1.518683e-01
4.990260e-01
4.996604e-01
4.967166e-01
4.984345e-01
4.995707e-01
4.930901e-01
4.959687e-01
4.980944e-01
4.994892e-01
4.837192e-01
4.883610e-01
4.922360e-01
4.953939e-01
4.978206e-01
4.994165e-01
4.655636e-01
4.759662e-01
4.822412e-01
4.872074e-01
4.913831e-01
4.948470e-01
4.975438e-01
4.993364e-01
4.691038e-01
4.751971e-01
4.808999e-01
4.860151e-01
4.904749e-01
4.942334e-01
4.972017e-01
4.992229e-01
4.539408e-01
4.604104e-01
4.668319e-01
4.732841e-01
4.792612e-01
4.846549e-01
4.894044e-01
4.934440e-01
4.966818e-01
4.989926e-01
4.995768e-01
4.404637e-01
4.493074e-01
4.570043e-01
4.642668e-01
4.710958e-01
4.773744e-01
4.830473e-01
4.880581e-01
4.923221e-01
4.956940e-01
4.979467e-01
4.994273e-01
4.149739e-01
4.265256e-01
4.367275e-01
4.456648e-01
4.538674e-01
4.615324e-01
4.686532e-01
4.751915e-01
4.811077e-01
4.863506e-01
4.908485e-01
4.945117e-01
4.973542e-01
4.992790e-01
3.826110e-01
3.990985e-01
4.120892e-01
4.232644e-01
4.330930e-01
4.421566e-01
3.110442e-01
2.950855e-01
2.806340e-01
2.674533e-01
2.546746e-01
2.420669e-01
2.295886e-01
2.172484e-01
2.050144e-01
1.928553e-01
1.810486e-01
1.688908e-01
1.570897e-01
4.506330e-01
4.585451e-01
4.658853e-01
4.726334e-01
4.787534e-01
4.842354e-01
4.890821e-01
4.932695e-01
4.967778e-01
4.991028e-01
1.480443e-01
1.601494e-01
1.737500e-01
1.886425e-01
2.049381e-01
2.223029e-01
2.405018e-01
2.593035e-01
2.784454e-01
2.977002e-01
3.170038e-01
3.362951e-01
3.553884e-01
3.744475e-01
3.926354e-01
4.095410e-01
4.249993e-01
4.397721e-01
4.546963e-01
4.647120e-01
4.739878e-01
4.840424e-01
4.910527e-01
4.963190e-01
3.673831e-01
3.853312e-01
3.975454e-01
4.094133e-01
4.195562e-01
4.292477e-01
4.384780e-01
4.471373e-01
4.551989e-01
4.627085e-01
4.696092e-01
4.758463e-01
4.815798e-01
4.868724e-01
4.914937e-01
4.963864e-01
4.985954e-01
1.488416e-01
1.616823e-01
1.760075e-01
1.915995e-01
2.085384e-01
2.264836e-01
2.452007e-01
2.644673e-01
2.840571e-01
3.037914e-01
3.235181e-01
3.430626e-01
3.622543e-01
3.808488e-01
3.985128e-01
4.150767e-01
4.304921e-01
4.448054e-01
4.574421e-01
4.684100e-01
4.781156e-01
4.865497e-01
4.931652e-01
4.979024e-01
1.496313e-01
1.632438e-01
1.782960e-01
1.946063e-01
2.122278e-01
2.308042e-01
2.500927e-01
2.698682e-01
2.899077e-01
3.100109e-01
3.299798e-01
3.496092e-01
3.686841e-01
3.869786e-01
4.042963e-01
4.205011e-01
4.354835e-01
4.490966e-01
4.612122e-01
4.718793e-01
4.810879e-01
4.887429e-01
4.946467e-01
4.985539e-01
1.504552e-01
1.648331e-01
1.806630e-01
1.977563e-01
2.161205e-01
2.353680e-01
2.552418e-01
2.755076e-01
2.959338e-01
3.339529e-01
3.165942e-01
3.010212e-01
2.883353e-01
2.757334e-01
2.630516e-01
2.503321e-01
2.376254e-01
2.249556e-01
2.123157e-01
1.997406e-01
1.872152e-01
1.746504e-01
1.614825e-01
1.527605e-01
3.163041e-01
3.364050e-01
3.560216e-01
3.749389e-01
3.929582e-01
4.099166e-01
4.256824e-01
4.401381e-01
4.531880e-01
4.647854e-01
4.749045e-01
4.834842e-01
4.904356e-01
4.956259e-01
4.988805e-01
1.512144e-01
1.664731e-01
1.832168e-01
2.011938e-01
2.203517e-01
2.402774e-01
2.607074e-01
2.814050e-01
3.021379e-01
3.226905e-01
3.428519e-01
3.624044e-01
3.811304e-01
3.988381e-01
4.153838e-01
4.306548e-01
4.445585e-01
4.570327e-01
4.680399e-01
4.775333e-01
4.854538e-01
4.917378e-01
4.963063e-01
4.990774e-01
1.521114e-01
1.684319e-01
1.862007e-01
2.051286e-01
2.250811e-01
2.456409e-01
2.665512e-01
2.875880e-01
3.085349e-01
3.292043e-01
3.493905e-01
3.688470e-01
3.873385e-01
4.046696e-01
4.207347e-01
4.354523e-01
4.487638e-01
4.606238e-01
4.709984e-01
4.798344e-01
4.871018e-01
4.927770e-01
4.968215e-01
4.992186e-01
1.534377e-01
1.709955e-01
1.898904e-01
2.097789e-01
2.304631e-01
2.515732e-01
2.728187e-01
2.940422e-01
3.150953e-01
3.358919e-01
3.561159e-01
3.754389e-01
3.936523e-01
4.105097e-01
4.259959e-01
4.400693e-01
4.527749e-01
4.640090e-01
4.737198e-01
4.818627e-01
4.885065e-01
4.936569e-01
4.972600e-01
4.993407e-01
1.552175e-01
1.744480e-01
1.946282e-01
2.152552e-01
2.366736e-01
2.582789e-01
2.794787e-01
3.005335e-01
3.216933e-01
3.429621e-01
3.631509e-01
3.822297e-01
4.002362e-01
4.164505e-01
4.311182e-01
4.443670e-01
4.567143e-01
4.673257e-01
4.762417e-01
4.835851e-01
4.897125e-01
4.944804e-01
3.565516e-01
3.390234e-01
3.192892e-01
3.090280e-01
2.970885e-01
2.845618e-01
2.717701e-01
2.588540e-01
2.458941e-01
2.329273e-01
2.199550e-01
2.069666e-01
1.940489e-01
1.814451e-01
1.704316e-01
1.585506e-01
4.977070e-01
4.994707e-01
1.591390e-01
1.807541e-01
1.998216e-01
2.214707e-01
2.442483e-01
2.664518e-01
2.861921e-01
3.043406e-01
3.292369e-01
3.509268e-01
3.704539e-01
3.889542e-01
4.079341e-01
4.229398e-01
4.350941e-01
4.480858e-01
4.613065e-01
4.710062e-01
4.780616e-01
4.848787e-01
4.907261e-01
4.954513e-01
4.983189e-01
4.995698e-01
4.995343e-01
4.992967e-01
4.979512e-01
4.995619e-01
4.987699e-01
4.971622e-01
4.950921e-01
4.992950e-01
4.979295e-01
4.960974e-01
4.936740e-01
4.908689e-01
4.987316e-01
4.970624e-01
4.948101e-01
4.920354e-01
4.887849e-01
4.851840e-01
4.993536e-01
4.975044e-01
4.958891e-01
4.933747e-01
4.902172e-01
4.865384e-01
4.824339e-01
4.779586e-01
4.692885e-01
4.991151e-01
4.972195e-01
4.946594e-01
4.917990e-01
4.882733e-01
4.841624e-01
4.795722e-01
4.746046e-01
4.594637e-01
4.995427e-01
4.986326e-01
4.965835e-01
4.937031e-01
4.902386e-01
4.862683e-01
4.817098e-01
4.766212e-01
4.711177e-01
4.653499e-01
4.485258e-01
4.992925e-01
4.978374e-01
4.956838e-01
4.925912e-01
4.887403e-01
4.842773e-01
4.792427e-01
4.736458e-01
4.675578e-01
4.611527e-01
4.547078e-01
4.988167e-01
4.971043e-01
4.946204e-01
4.913155e-01
4.871713e-01
4.823049e-01
4.768057e-01
4.707114e-01
4.640558e-01
4.568994e-01
4.495928e-01
4.425957e-01
4.357998e-01
4.206156e-01
4.994656e-01
4.978406e-01
4.962018e-01
4.935315e-01
4.899572e-01
4.855288e-01
4.803126e-01
4.744017e-01
4.678507e-01
4.606861e-01
4.529380e-01
4.444047e-01
4.362801e-01
4.291121e-01
3.629999e-01
3.779664e-01
4.992867e-01
4.978178e-01
4.954322e-01
4.924779e-01
4.886220e-01
4.838766e-01
4.783091e-01
4.720118e-01
4.650616e-01
4.574507e-01
4.492090e-01
4.405040e-01
4.287106e-01
4.215378e-01
4.154342e-01
3.996833e-01
1.368000e-01
1.368000e-01
1.368000e-01
1.368000e-01
1.368000e-01
1.368000e-01
1.368000e-01
1.368000e-01
1.368000e-01
1.368000e-01
1.368000e-01
1.368000e-01
1.368000e-01
1.368000e-01
1.368000e-01
1.368000e-01
1.368000e-01
1.368000e-01
1.368000e-01
1.368000e-01
1.368000e-01
1.368000e-01
1.368000e-01
1.368000e-01
1.368000e-01
1.368000e-01
1.368000e-01
1.368000e-01
1.368000e-01
1.368000e-01
1.368000e-01
1.368000e-01
1.368000e-01
1.368000e-01
1.368000e-01
1.368000e-01
1.368000e-01
1.368000e-01
1.368000e-01
1.368000e-01
1.368000e-01
1.368000e-01
1.368000e-01
1.368000e-01
1.368000e-01
1.368000e-01
1.368000e-01
1.368000e-01
1.368000e-01
1.368000e-01
1.368000e-01
1.368000e-01
1.368000e-01
1.368000e-01
1.368000e-01
1.368000e-01
1.368000e-01
1.368000e-01
1.368000e-01
1.368000e-01
1.368000e-01
1.368000e-01
1.368000e-01
1.368000e-01
1.368000e-01
1.368000e-01
1.368000e-01
1.368000e-01
1.368000e-01
1.368000e-01
1.368000e-01
1.368000e-01
1.368000e-01
1.368000e-01
1.368000e-01
1.368000e-01
1.368000e-01
1.368000e-01
1.368000e-01
1.368000e-01
1.368000e-01
1.368000e-01
1.368000e-01
1.368000e-01
1.368000e-01
1.368000e-01
1.368000e-01
1.368000e-01
1.368000e-01
1.368000e-01
1.368000e-01
1.368000e-01
1.368000e-01
1.368000e-01
1.368000e-01
1.368000e-01
1.368000e-01
1.368000e-01
1.368000e-01
1.368000e-01
1.368000e-01
1.368000e-01
1.368000e-01
1.368000e-01
1.368000e-01
1.368000e-01
1.368000e-01
1.368000e-01
1.368000e-01
1.368000e-01
1.368000e-01
1.368000e-01
1.368000e-01
1.368000e-01
1.368000e-01
1.368000e-01
1.368000e-01
1.368000e-01
1.368000e-01
1.368000e-01
1.368000e-01
1.368000e-01
1.368000e-01
1.368000e-01
1.368000e-01
1.368000e-01
1.368000e-01
1.368000e-01
1.368000e-01
1.368000e-01
1.368000e-01
1.368000e-01
1.368000e-01
1.368000e-01
1.368000e-01
1.368000e-01
1.368000e-01
1.368000e-01
1.368000e-01
1.368000e-01
1.368000e-01
1.368000e-01
1.368000e-01
1.368000e-01
1.368000e-01
1.368000e-01
1.368000e-01
1.368000e-01
1.368000e-01
1.368000e-01
1.368000e-01
1.368000e-01
1.368000e-01
1.368000e-01
1.368000e-01
1.368000e-01
1.368000e-01
1.368000e-01
1.368000e-01
1.368000e-01
1.368000e-01
1.368000e-01
1.368000e-01
1.368000e-01
1.368000e-01
1.368000e-01
1.368000e-01
1.368000e-01
1.368000e-01
1.368000e-01
1.368000e-01
1.368000e-01
1.368000e-01
1.368000e-01
1.368000e-01
1.368000e-01
1.368000e-01
1.368000e-01
1.368000e-01
1.368000e-01
1.368000e-01
1.368000e-01
1.368000e-01
1.368000e-01
1.368000e-01
1.368000e-01
1.368000e-01
1.368000e-01
1.368000e-01
1.368000e-01
1.368000e-01
1.368000e-01
1.368000e-01
1.368000e-01
1.368000e-01
1.368000e-01
1.368000e-01
1.368000e-01
1.368000e-01
1.368000e-01
1.368000e-01
1.368000e-01
1.368000e-01
1.368000e-01
1.368000e-01
1.368000e-01
1.368000e-01
1.368000e-01
1.368000e-01
1.368000e-01
1.368000e-01
1.368000e-01
1.368000e-01
1.368000e-01
1.368000e-01
1.368000e-01
1.368000e-01
1.368000e-01
1.368000e-01
1.368000e-01
1.368000e-01
1.368000e-01
1.368000e-01
1.368000e-01
1.368000e-01
1.368000e-01
1.368000e-01
1.368000e-01
1.368000e-01
1.368000e-01
1.368000e-01
1.368000e-01
1.368000e-01
1.368000e-01
1.368000e-01
1.368000e-01
1.368000e-01
1.368000e-01
1.368000e-01
1.368000e-01
1.368000e-01
1.368000e-01
1.368000e-01
1.368000e-01
1.368000e-01
1.368000e-01
1.368000e-01
1.368000e-01
1.368000e-01
1.368000e-01
1.368000e-01
1.368000e-01
1.368000e-01
1.368000e-01
1.368000e-01
1.368000e-01
1.368000e-01
1.368000e-01
1.368000e-01
1.368000e-01
1.368000e-01
1.368000e-01
1.368000e-01
1.368000e-01
1.368000e-01
1.368000e-01
1.368000e-01
1.368000e-01
1.368000e-01
1.368000e-01
1.368000e-01
1.368000e-01
1.368000e-01
1.368000e-01
1.368000e-01
1.368000e-01
1.368000e-01
1.368000e-01
1.368000e-01
1.368000e-01
1.368000e-01
1.368000e-01
1.368000e-01
1.368000e-01
1.368000e-01
1.368000e-01
1.368000e-01
1.368000e-01
1.368000e-01
1.368000e-01
1.368000e-01
1.368000e-01
1.368000e-01
1.368000e-01
1.368000e-01
1.368000e-01
1.368000e-01
1.368000e-01
1.368000e-01
1.368000e-01
1.368000e-01
1.368000e-01
1.368000e-01
1.368000e-01
1.368000e-01
1.368000e-01
1.368000e-01
1.368000e-01
1.368000e-01
1.368000e-01
1.368000e-01
1.368000e-01
1.368000e-01
1.368000e-01
1.368000e-01
1.368000e-01
1.368000e-01
1.368000e-01
1.368000e-01
1.368000e-01
1.368000e-01
1.368000e-01
1.368000e-01
1.368000e-01
1.368000e-01
1.368000e-01
1.368000e-01
1.368000e-01
1.368000e-01
1.368000e-01
1.368000e-01
1.368000e-01
1.368000e-01
1.368000e-01
1.368000e-01
1.368000e-01
1.368000e-01
1.368000e-01
1.368000e-01
1.368000e-01
1.368000e-01
1.368000e-01
1.368000e-01
1.368000e-01
1.368000e-01
1.368000e-01
1.368000e-01
1.368000e-01
1.368000e-01
1.368000e-01
1.368000e-01
1.368000e-01
1.368000e-01
1.368000e-01
1.368000e-01
1.368000e-01
1.368000e-01
1.368000e-01
1.368000e-01
1.368000e-01
1.368000e-01
1.368000e-01
1.368000e-01
1.368000e-01
1.368000e-01
1.368000e-01
1.368000e-01
1.368000e-01
1.368000e-01
1.368000e-01
2.868000e-01
2.868000e-01
2.868000e-01
2.868000e-01
2.868000e-01
2.868000e-01
2.868000e-01
2.868000e-01
2.868000e-01
2.868000e-01
2.868000e-01
2.868000e-01
2.868000e-01
2.868000e-01
2.868000e-01
2.868000e-01
2.868000e-01
2.868000e-01
2.868000e-01
2.868000e-01
2.868000e-01
2.868000e-01
2.868000e-01
2.868000e-01
2.868000e-01
2.868000e-01
2.868000e-01
2.868000e-01
2.868000e-01
2.868000e-01
2.868000e-01
2.868000e-01
2.868000e-01
2.378970e-01
2.306947e-01
2.491425e-01
2.351357e-01
2.408199e-01
2.268514e-01
2.262660e-01
2.203224e-01
2.159621e-01
2.377924e-01
2.310552e-01
2.250580e-01
2.361009e-01
2.236710e-01
2.330984e-01
1.540155e-01
2.849251e-01
2.819371e-01
2.751962e-01
2.783033e-01
2.760585e-01
2.700790e-01
2.764381e-01
2.725628e-01
2.685561e-01
2.692474e-01
2.644431e-01
2.594358e-01
2.648726e-01
2.597997e-01
2.547901e-01
2.490818e-01
2.828474e-01
2.598718e-01
2.543687e-01
2.487413e-01
2.452492e-01
2.378016e-01
2.351940e-01
2.400891e-01
2.278409e-01
2.552940e-01
2.449387e-01
2.856605e-01
2.329388e-01
2.186380e-01
2.253102e-01
2.193993e-01
2.132841e-01
2.084314e-01
2.060792e-01
2.105785e-01
2.046068e-01
1.998695e-01
1.962883e-01
2.012947e-01
1.940612e-01
1.904403e-01
1.866935e-01
1.832056e-01
1.803948e-01
1.771436e-01
1.701475e-01
1.676398e-01
1.573193e-01
1.940553e-01
1.788287e-01
1.668118e-01
1.572005e-01
1.468340e-01
2.750244e-01
2.699218e-01
2.860310e-01
2.833268e-01
2.848588e-01
2.790828e-01
2.811752e-01
2.762533e-01
2.705162e-01
2.788234e-01
2.823056e-01
2.852859e-01
1.722199e-01
1.607617e-01
1.478991e-01
1.716411e-01
1.577881e-01
1.448710e-01
2.746793e-01
2.695738e-01
2.859188e-01
2.830918e-01
2.846836e-01
2.788072e-01
2.808985e-01
2.758806e-01
2.700698e-01
1.716185e-01
1.604449e-01
1.478974e-01
1.722502e-01
1.581975e-01
1.450043e-01
2.858405e-01
2.828765e-01
2.844256e-01
2.784896e-01
2.804686e-01
2.754953e-01
2.700188e-01
1.728035e-01
1.611153e-01
1.479250e-01
2.856038e-01
2.818076e-01
2.779930e-01
2.751432e-01
2.716622e-01
2.701677e-01
2.614931e-01
1.720978e-01
1.590112e-01
1.457577e-01
1.971866e-01
1.838966e-01
1.703698e-01
1.556186e-01
1.448112e-01
2.755941e-01
2.707070e-01
2.859670e-01
2.832178e-01
2.847560e-01
2.789311e-01
2.810699e-01
2.759743e-01
2.702456e-01
1.745449e-01
1.626193e-01
1.491090e-01
1.722649e-01
1.587020e-01
2.650732e-01
2.720571e-01
2.769706e-01
2.809372e-01
1.453639e-01
2.859034e-01
2.832330e-01
2.793879e-01
1.742947e-01
1.625456e-01
1.482685e-01
2.730336e-01
2.675207e-01
2.856198e-01
2.824483e-01
2.842427e-01
2.778656e-01
2.798404e-01
2.717720e-01
2.738982e-01
2.641660e-01
2.673736e-01
1.928432e-01
1.804190e-01
1.681195e-01
1.570631e-01
1.460847e-01
1.687917e-01
1.558714e-01
1.442048e-01
2.856003e-01
2.821791e-01
2.837627e-01
2.772803e-01
2.795037e-01
2.743899e-01
2.686419e-01
2.535924e-01
1.701521e-01
1.598047e-01
1.471259e-01
2.861492e-01
2.827090e-01
2.779336e-01
2.745033e-01
2.709246e-01
2.692678e-01
2.600820e-01
1.714759e-01
1.579662e-01
1.452738e-01
1.955825e-01
1.826142e-01
1.694871e-01
1.550852e-01
1.445397e-01
2.741900e-01
2.689553e-01
2.857624e-01
2.827698e-01
2.844982e-01
2.783565e-01
2.804489e-01
2.749444e-01
2.688786e-01
1.732662e-01
1.616562e-01
1.485928e-01
1.703866e-01
1.575158e-01
1.448435e-01
2.746096e-01
2.694927e-01
2.857848e-01
2.444023e-01
2.827364e-01
2.845143e-01
2.782177e-01
2.805975e-01
2.754833e-01
2.695753e-01
1.716267e-01
1.601325e-01
1.474003e-01
1.694307e-01
1.568468e-01
1.445614e-01
2.857529e-01
2.826299e-01
2.841724e-01
2.781747e-01
2.797748e-01
2.738934e-01
2.678682e-01
1.703038e-01
1.597326e-01
1.470530e-01
2.855968e-01
2.832030e-01
2.799540e-01
2.732313e-01
2.738880e-01
2.678489e-01
2.634489e-01
1.703422e-01
1.571314e-01
1.447763e-01
1.994901e-01
1.864526e-01
1.700096e-01
1.575519e-01
1.466772e-01
2.856968e-01
2.822671e-01
2.833391e-01
2.624426e-01
2.694764e-01
2.749276e-01
2.791025e-01
2.817808e-01
2.849343e-01
2.772811e-01
2.788767e-01
2.732299e-01
2.672478e-01
1.701823e-01
1.593162e-01
1.474110e-01
2.858035e-01
2.814261e-01
2.741111e-01
2.686603e-01
2.616247e-01
1.708843e-01
1.576995e-01
1.448787e-01
1.475703e-01
2.793396e-01
2.767179e-01
2.720288e-01
2.716465e-01
2.638927e-01
2.623895e-01
2.648878e-01
2.559543e-01
2.462769e-01
2.502473e-01
2.547985e-01
2.574580e-01
2.373028e-01
2.430046e-01
2.479494e-01
2.470139e-01
2.190043e-01
2.083066e-01
2.000251e-01
1.917626e-01
1.827570e-01
1.725327e-01
1.626118e-01
1.560965e-01
1.476279e-01
1.616666e-01
1.666097e-01
1.755792e-01
1.763746e-01
1.912049e-01
1.878650e-01
1.851639e-01
2.016283e-01
1.977368e-01
1.945792e-01
2.033076e-01
2.153431e-01
2.106030e-01
2.065961e-01
2.280102e-01
2.235841e-01
2.185623e-01
2.147590e-01
2.119083e-01
2.403400e-01
2.209024e-01
2.297830e-01
2.342271e-01
2.837835e-01
1.467613e-01
2.853746e-01
2.850743e-01
2.834996e-01
2.810544e-01
2.861196e-01
2.753731e-01
2.725781e-01
2.692290e-01
2.452287e-01
2.518119e-01
2.598956e-01
2.671118e-01
2.730319e-01
2.776662e-01
2.812843e-01
2.844228e-01
2.861298e-01
2.845853e-01
2.819199e-01
2.780580e-01
2.563723e-01
2.858272e-01
2.837466e-01
2.807959e-01
2.765466e-01
2.716474e-01
2.669793e-01
2.622991e-01
2.863503e-01
2.852139e-01
2.822193e-01
2.800234e-01
2.745194e-01
2.691514e-01
2.642968e-01
2.603874e-01
2.524661e-01
2.457139e-01
1.522914e-01
1.448106e-01
1.738686e-01
1.658444e-01
1.556107e-01
1.476058e-01
1.769948e-01
1.639613e-01
2.102956e-01
2.037118e-01
1.937556e-01
1.806873e-01
1.698922e-01
1.605045e-01
1.518080e-01
1.453180e-01
1.947674e-01
1.842476e-01
2.727526e-01
2.650773e-01
2.567654e-01
2.464598e-01
2.346338e-01
2.215020e-01
2.078315e-01
2.859632e-01
2.839573e-01
2.794526e-01
2.726287e-01
2.640724e-01
2.532538e-01
2.420568e-01
2.299861e-01
2.176734e-01
2.071533e-01
1.952022e-01
1.849729e-01
1.735966e-01
1.602787e-01
1.492946e-01
2.236112e-01
2.152298e-01
2.053375e-01
1.940502e-01
1.833862e-01
1.736257e-01
1.645403e-01
1.563437e-01
1.480901e-01
1.449723e-01
2.592712e-01
2.508315e-01
2.397918e-01
2.269005e-01
1.639709e-01
1.584965e-01
1.484980e-01
2.108211e-01
1.971310e-01
1.835490e-01
1.696668e-01
1.569427e-01
1.469055e-01
2.723913e-01
2.646206e-01
2.559471e-01
2.450313e-01
2.330948e-01
2.204360e-01
2.073328e-01
1.937593e-01
1.816139e-01
1.687894e-01
2.857416e-01
2.836868e-01
2.791991e-01
2.730546e-01
2.641248e-01
2.511763e-01
2.393305e-01
2.268203e-01
2.141081e-01
2.024035e-01
2.857392e-01
2.824927e-01
2.779524e-01