VARIABLES = "X" "Y" "Z" "FREF"
ZONE T="instant 004"
Nodes=3151, Elements=6298
ZONETYPE=FETriangle
DATAPACKING=BLOCK
VARLOCATION = ([1-3]=NODAL, [4]=CELLCENTERED)
5.000000e-01
5.571102e-02
8.371061e-02
1.098486e-01
1.338374e-01
1.612638e-01
1.897221e-01
2.184902e-01
2.473884e-01
2.760054e-01
3.039394e-01
3.302704e-01
3.548830e-01
3.785572e-01
4.001704e-01
4.189092e-01
4.345036e-01
4.465710e-01
4.575129e-01
4.685704e-01
4.781572e-01
4.858482e-01
4.916031e-01
4.957794e-01
4.983966e-01
4.996971e-01
3.540000e-02
3.540000e-02
3.540000e-02
3.540000e-02
3.540000e-02
3.540000e-02
3.540000e-02
3.540000e-02
3.540000e-02
3.540000e-02
3.540000e-02
3.540000e-02
1.849655e-01
1.837663e-01
1.814582e-01
1.781230e-01
1.741168e-01
1.702081e-01
1.652999e-01
1.592245e-01
1.522745e-01
1.452509e-01
1.375463e-01
1.286737e-01
1.202821e-01
1.118504e-01
1.029139e-01
9.141763e-02
8.026460e-02
7.109072e-02
6.026247e-02
4.802593e-02
1.854000e-01
4.768091e-01
4.457344e-01
4.193498e-01
3.919285e-01
3.556231e-01
3.196019e-01
2.888525e-01
2.593073e-01
2.283994e-01
2.026557e-01
2.784986e-01
9.587628e-02
8.103224e-02
2.914430e-01
2.701565e-01
9.370204e-02
1.090514e-01
8.538002e-02
1.171666e-01
6.356547e-02
1.245442e-01
1.052110e-01
1.320246e-01
1.491610e-01
4.788727e-01
1.720849e-01
1.965877e-01
1.604828e-01
1.753319e-01
1.910283e-01
2.227698e-01
2.598766e-01
2.383546e-01
2.508681e-01
2.756797e-01
3.100880e-01
2.832313e-01
4.690713e-01
4.533590e-01
2.992949e-01
3.303094e-01
3.248381e-01
3.516270e-01
3.539819e-01
3.654876e-01
2.028644e-01
2.496970e-01
2.283456e-01
1.987712e-01
8.286742e-02
6.488146e-02
5.634845e-02
5.988605e-02
6.072575e-02
8.526571e-02
1.095485e-01
6.203510e-02
8.722610e-02
1.123392e-01
1.372413e-01
4.964487e-02
6.642976e-02
8.933334e-02
1.150848e-01
4.741368e-01
1.403244e-01
1.651344e-01
1.678939e-01
1.928629e-01
1.724177e-01
1.935642e-01
2.197168e-01
6.069305e-02
8.800930e-02
1.157278e-01
1.451712e-01
1.156842e-01
1.176785e-01
1.336163e-01
1.533431e-01
1.904589e-01
2.126434e-01
2.267101e-01
2.456290e-01
5.887353e-02
8.389133e-02
1.114734e-01
1.430755e-01
1.689931e-01
1.899292e-01
2.139060e-01
1.851341e-01
2.062733e-01
2.157733e-01
2.347523e-01
2.539793e-01
2.768395e-01
1.381970e-01
1.599856e-01
1.847363e-01
2.352188e-01
4.657743e-01
4.496037e-01
4.354980e-01
4.188364e-01
2.574623e-01
2.793759e-01
3.036520e-01
1.393697e-01
2.091055e-01
2.329854e-01
2.586049e-01
2.802840e-01
3.030472e-01
3.280622e-01
1.608074e-01
1.854600e-01
2.153406e-01
2.328501e-01
2.570414e-01
2.855151e-01
4.569419e-01
4.379012e-01
4.206077e-01
4.030340e-01
3.821152e-01
3.020118e-01
3.246782e-01
3.504955e-01
2.492362e-01
2.781232e-01
3.164483e-01
3.434603e-01
3.709981e-01
1.580948e-01
1.818397e-01
2.087091e-01
2.387968e-01
3.064791e-01
3.348862e-01
3.623526e-01
3.901683e-01
2.702366e-01
2.997412e-01
3.270272e-01
3.545088e-01
3.809967e-01
4.081530e-01
3.854769e-01
4.064269e-01
1.746422e-01
2.017585e-01
2.303096e-01
2.611742e-01
2.939639e-01
3.238921e-01
3.470498e-01
3.753275e-01
3.991527e-01
4.257601e-01
3.043808e-01
3.213404e-01
4.472919e-01
4.272186e-01
4.085715e-01
3.904590e-01
3.713918e-01
3.511985e-01
3.307932e-01
3.407582e-01
3.605498e-01
3.790792e-01
3.968933e-01
4.165232e-01
4.368345e-01
3.540000e-02
4.995614e-01
4.974104e-01
4.936747e-01
4.884131e-01
4.802716e-01
4.708205e-01
4.591859e-01
4.453001e-01
4.278724e-01
4.083659e-01
3.898915e-01
3.690444e-01
3.448900e-01
3.195389e-01
2.974458e-01
2.777999e-01
2.571563e-01
2.320050e-01
2.042878e-01
1.763729e-01
1.487565e-01
1.216495e-01
9.574662e-02
7.186700e-02
5.130871e-02
5.000000e-01
2.018687e-01
2.262858e-01
2.587050e-01
2.935963e-01
3.256182e-01
3.564433e-01
3.859555e-01
4.181249e-01
4.519092e-01
4.797238e-01
1.854000e-01
4.591554e-02
5.637600e-02
6.838516e-02
8.109119e-02
9.231096e-02
1.025036e-01
1.124434e-01
1.218474e-01
1.301557e-01
1.369495e-01
1.444985e-01
1.513560e-01
1.571882e-01
1.622126e-01
1.670518e-01
1.723751e-01
1.766107e-01
1.793798e-01
1.816885e-01
1.836827e-01
1.849881e-01
3.540000e-02
3.540000e-02
3.540000e-02
3.540000e-02
3.540000e-02
3.540000e-02
3.540000e-02
3.540000e-02
3.540000e-02
3.540000e-02
3.540000e-02
2.637570e-01
3.206054e-01
8.753449e-02
1.213051e-01
1.171484e-01
2.089732e-01
2.238202e-01
2.394338e-01
2.462126e-01
2.757966e-01
2.781391e-01
2.900967e-01
2.727002e-01
3.776599e-01
5.657698e-02
3.451251e-01
3.167905e-01
3.572308e-01
2.942008e-01
3.429379e-01
3.222303e-01
3.692886e-01
3.507558e-01
6.089202e-02
1.039797e-01
8.805370e-02
8.013109e-02
6.373156e-02
1.065521e-01
1.450219e-01
1.119924e-01
1.540838e-01
1.422645e-01
1.789061e-01
1.641679e-01
1.996683e-01
2.241096e-01
6.010911e-02
2.041661e-01
5.754561e-02
6.669289e-02
8.205579e-02
1.940519e-01
2.177241e-01
2.406534e-01
4.699625e-01
4.381325e-01
4.557504e-01
4.694080e-01
3.931243e-01
4.085481e-01
4.238151e-01
4.394748e-01
1.045253e-01
8.800879e-02
6.142002e-02
4.582223e-01
3.922267e-01
4.071871e-01
4.232813e-01
4.493639e-01
3.713021e-01
3.784627e-01
4.227007e-01
4.374048e-01
2.038996e-01
2.191001e-01
2.401340e-01
3.592885e-01
3.812681e-01
4.150229e-01
3.090853e-01
3.455959e-01
3.593806e-01
3.749829e-01
3.883384e-01
3.974801e-01
4.052197e-01
1.811276e-01
2.644079e-01
2.971175e-01
3.338278e-01
3.528058e-01
3.767987e-01
4.029919e-01
1.919308e-01
2.086610e-01
2.297978e-01
3.220847e-01
3.448836e-01
1.301858e-01
1.134024e-01
3.662711e-01
3.880862e-01
1.657182e-01
2.551880e-01
2.861619e-01
3.178332e-01
3.338320e-01
3.523778e-01
3.712015e-01
1.779023e-01
1.953906e-01
2.164980e-01
3.020344e-01
3.198364e-01
3.360738e-01
3.526125e-01
2.396911e-01
1.557072e-01
1.353078e-01
1.121274e-01
8.694559e-02
6.039597e-02
2.643085e-01
2.920195e-01
3.035782e-01
3.178022e-01
3.321068e-01
1.469775e-01
1.610340e-01
1.807735e-01
2.005702e-01
2.714804e-01
2.847653e-01
2.983082e-01
3.102909e-01
2.192488e-01
2.366309e-01
2.515478e-01
2.667045e-01
2.786877e-01
2.877612e-01
6.149292e-02
8.874392e-02
1.253637e-01
1.538828e-01
1.813272e-01
2.085973e-01
2.333977e-01
1.263873e-01
1.413717e-01
1.691791e-01
1.803899e-01
1.976533e-01
2.162841e-01
2.345353e-01
2.518586e-01
2.566692e-01
2.630592e-01
1.820219e-01
1.604395e-01
1.385844e-01
1.153540e-01
8.937341e-02
6.185126e-02
1.897755e-01
2.104283e-01
2.343281e-01
1.451696e-01
1.656231e-01
1.859599e-01
2.084298e-01
5.000000e-01
5.000000e-01
5.000000e-01
5.000000e-01
5.000000e-01
5.000000e-01
5.000000e-01
5.000000e-01
5.000000e-01
5.000000e-01
5.000000e-01
5.000000e-01
5.000000e-01
5.000000e-01
5.000000e-01
5.000000e-01
5.000000e-01
5.000000e-01
5.000000e-01
5.000000e-01
5.000000e-01
5.000000e-01
5.000000e-01
5.000000e-01
5.000000e-01
5.000000e-01
5.000000e-01
5.000000e-01
5.000000e-01
5.000000e-01
5.000000e-01
5.000000e-01
5.000000e-01
3.540000e-02
3.540000e-02
3.540000e-02
3.540000e-02
3.540000e-02
3.540000e-02
3.540000e-02
3.540000e-02
3.540000e-02
3.540000e-02
3.540000e-02
3.540000e-02
3.540000e-02
3.540000e-02
3.540000e-02
3.540000e-02
3.540000e-02
3.540000e-02
3.540000e-02
3.540000e-02
3.540000e-02
3.540000e-02
3.540000e-02
3.540000e-02
3.540000e-02
3.540000e-02
3.540000e-02
3.540000e-02
3.540000e-02
3.540000e-02
3.540000e-02
3.540000e-02
3.540000e-02
3.429868e-01
3.584083e-01
3.506839e-01
3.652219e-01
3.799442e-01
3.796567e-01
3.528842e-01
3.653064e-01
2.899719e-01
3.050749e-01
3.162149e-01
3.185730e-01
3.287547e-01
3.364006e-01
3.475486e-01
3.794525e-01
3.573505e-01
3.447725e-01
3.666149e-01
3.875499e-01
3.325598e-01
3.334388e-01
6.710488e-02
5.467653e-02
3.526455e-01
3.739221e-01
3.945161e-01
3.708200e-01
3.851778e-01
3.991985e-01
3.901221e-01
4.030194e-01
4.073001e-01
4.332118e-01
3.592253e-01
3.761716e-01
3.509163e-01
3.852682e-01
3.632845e-01
3.406857e-01
3.934382e-01
3.718865e-01
3.524642e-01
3.326276e-01
3.925620e-01
4.083896e-01
4.038407e-01
3.878486e-01
3.752490e-01
9.368907e-02
7.757790e-02
5.958699e-02
3.250993e-01
3.407058e-01
3.536977e-01
3.151469e-01
3.297893e-01
3.047325e-01
5.781562e-02
7.604192e-02
8.139978e-02
1.003221e-01
1.070233e-01
1.226995e-01
1.281179e-01
1.343354e-01
1.348692e-01
1.470336e-01
1.552765e-01
1.620806e-01
1.626634e-01
1.740108e-01
1.827173e-01
1.897224e-01
1.799480e-01
1.915458e-01
2.016560e-01
2.100287e-01
2.168716e-01
1.980201e-01
2.090247e-01
2.195551e-01
2.288607e-01
2.367107e-01
2.431933e-01
2.139924e-01
1.199893e-01
1.036798e-01
8.650685e-02
6.899912e-02
5.586217e-02
2.256586e-01
2.366220e-01
2.465673e-01
2.552180e-01
2.624287e-01
2.684118e-01
2.404107e-01
2.525264e-01
2.632272e-01
2.725933e-01
2.806089e-01
2.868992e-01
2.922429e-01
2.547590e-01
2.672464e-01
2.789005e-01
2.888999e-01
2.975933e-01
3.052366e-01
3.095451e-01
3.143692e-01
2.676038e-01
2.805744e-01
2.931850e-01
3.048685e-01
3.131202e-01
3.214952e-01
3.310839e-01
3.282219e-01
3.356060e-01
3.459710e-01
4.020873e-01
3.201189e-01
3.400690e-01
3.625654e-01
1.466776e-01
1.307134e-01
1.137510e-01
9.665087e-02
8.077021e-02
6.673157e-02
3.851992e-01
3.069317e-01
3.295754e-01
3.534694e-01
3.765555e-01
3.955577e-01
4.117743e-01
3.562406e-01
3.702874e-01
3.760652e-01
3.847698e-01
3.917544e-01
3.996146e-01
4.073629e-01
4.148321e-01
4.153241e-01
4.187099e-01
4.223149e-01
4.264994e-01
4.294201e-01
4.325565e-01
3.988368e-01
4.098272e-01
4.180526e-01
4.256425e-01
4.329585e-01
4.386816e-01
4.420349e-01
4.138379e-01
4.191713e-01
4.268527e-01
4.353403e-01
4.418606e-01
4.467012e-01
4.505533e-01
4.298477e-01
4.445677e-01
4.427560e-01
4.524158e-01
4.548992e-01
4.583565e-01
4.627134e-01
4.656581e-01
4.424955e-01
4.582597e-01
4.666097e-01
4.718806e-01
4.546888e-01
4.675615e-01
4.728370e-01
4.771685e-01
4.738027e-01
4.825428e-01
1.743465e-01
1.581816e-01
1.413237e-01
1.240798e-01
1.070363e-01
9.040522e-02
7.210478e-02
5.688409e-02
4.799385e-01
4.873936e-01
4.822554e-01
4.884123e-01
4.944666e-01
4.974933e-01
4.942703e-01
4.900382e-01
4.895060e-01
4.850111e-01
4.829740e-01
4.838213e-01
4.749348e-01
4.758828e-01
4.772820e-01
4.790608e-01
4.655991e-01
4.662832e-01
4.678007e-01
4.698532e-01
4.722279e-01
4.549806e-01
4.565414e-01
4.588603e-01
4.616333e-01
4.646109e-01
4.527745e-01
4.563161e-01
4.416416e-01
4.434437e-01
4.460258e-01
4.492460e-01
4.266299e-01
4.284959e-01
4.312578e-01
4.349466e-01
4.392104e-01
4.434669e-01
4.473896e-01
4.107858e-01
4.119362e-01
4.144797e-01
4.185099e-01
4.236452e-01
4.292302e-01
4.338152e-01
4.376091e-01
3.755309e-01
3.761399e-01
3.941865e-01
3.957323e-01
3.995305e-01
4.057200e-01
4.126967e-01
4.204692e-01
4.221763e-01
4.271430e-01
3.769760e-01
3.929256e-01
3.649398e-01
1.101608e-01
1.459280e-01
1.245853e-01
1.516110e-01
1.404049e-01
1.788931e-01
1.696039e-01
1.583378e-01
2.141901e-01
1.992039e-01
2.024024e-01
1.858851e-01
1.689980e-01
1.517523e-01
1.343301e-01
1.168684e-01
9.929665e-02
8.239833e-02
6.737927e-02
1.875607e-01
1.764045e-01
2.440064e-01
2.297955e-01
2.167855e-01
2.052127e-01
1.943334e-01
2.593828e-01
2.458124e-01
2.337005e-01
2.225863e-01
2.120454e-01
2.880123e-01
2.739863e-01
2.615784e-01
2.502981e-01
2.397122e-01
2.294882e-01
3.148104e-01
3.009949e-01
2.884862e-01
2.772010e-01
2.667118e-01
2.566017e-01
2.465926e-01
3.389046e-01
3.268272e-01
3.141835e-01
3.030112e-01
2.927948e-01
2.830272e-01
2.732189e-01
2.632259e-01
3.585559e-01
3.535105e-01
3.383882e-01
3.275098e-01
3.176112e-01
3.085630e-01
2.993039e-01
2.893832e-01
2.791571e-01
4.180571e-01
4.038347e-01
3.862579e-01
3.663588e-01
3.434923e-01
3.189887e-01
2.940728e-01
3.988685e-01
3.803189e-01
3.588902e-01
3.321582e-01
3.075175e-01
5.638591e-02
5.701341e-02
6.068911e-02
8.015837e-02
7.641422e-02
8.931464e-02
1.057933e-01
5.904017e-02
7.992180e-02
9.842606e-02
1.152698e-01
1.324071e-01
6.239493e-02
8.457327e-02
1.049060e-01
1.238677e-01
1.421196e-01
1.598310e-01
2.303980e-01
2.134776e-01
1.965353e-01
1.793815e-01
1.619759e-01
1.443195e-01
1.264947e-01
1.087336e-01
9.125722e-02
7.239784e-02
5.602553e-02
5.527286e-02
7.010380e-02
9.062140e-02
1.114207e-01
1.315023e-01
1.508901e-01
1.697133e-01
1.877759e-01
5.322273e-02
5.978611e-02
7.912560e-02
9.810552e-02
1.184081e-01
1.388109e-01
1.588572e-01
1.784938e-01
1.976823e-01
2.162056e-01
6.686578e-02
8.594473e-02
1.057370e-01
1.257595e-01
1.459668e-01
1.662031e-01
1.862996e-01
2.060886e-01
2.256945e-01
2.463686e-01
2.682953e-01
5.552843e-02
7.420729e-02
9.250146e-02
1.127290e-01
1.332151e-01
1.530484e-01
1.729069e-01
1.932273e-01
2.133530e-01
2.330193e-01
2.524586e-01
2.716253e-01
2.874040e-01
5.710965e-02
7.827125e-02
9.773324e-02
1.184781e-01
1.405672e-01
1.606645e-01
1.789882e-01
1.989493e-01
2.197933e-01
2.395297e-01
2.588303e-01
2.774674e-01
2.950265e-01
3.086511e-01
4.692594e-02
5.943807e-02
7.953375e-02
1.045145e-01
1.205896e-01
1.469005e-01
1.693429e-01
1.873407e-01
2.014214e-01
2.255678e-01
2.454064e-01
2.645711e-01
2.835704e-01
3.006981e-01
3.205590e-01
3.289871e-01
2.579859e-01
2.405588e-01
2.236005e-01
2.066809e-01
1.895189e-01
1.719942e-01
1.541584e-01
1.361120e-01
1.179517e-01
9.956765e-02
8.125055e-02
6.209624e-02
4.989464e-01
4.996369e-01
4.965043e-01
4.983373e-01
4.995503e-01
4.927959e-01
4.958328e-01
4.980538e-01
4.994878e-01
4.832965e-01
4.881501e-01
4.921808e-01
4.954224e-01
4.978725e-01
4.994429e-01
4.656968e-01
4.758661e-01
4.823922e-01
4.874457e-01
4.916594e-01
4.951018e-01
4.977169e-01
4.993981e-01
4.698215e-01
4.759523e-01
4.816888e-01
4.867856e-01
4.911650e-01
4.947730e-01
4.975302e-01
4.993318e-01
4.546737e-01
4.616524e-01
4.683558e-01
4.748670e-01
4.807956e-01
4.860577e-01
4.905928e-01
4.943356e-01
4.972164e-01
4.991648e-01
4.996527e-01
4.422458e-01
4.515559e-01
4.595067e-01
4.668706e-01
4.736474e-01
4.797626e-01
4.851731e-01
4.898222e-01
4.936366e-01
4.965147e-01
4.983098e-01
4.995302e-01
4.171747e-01
4.294051e-01
4.401611e-01
4.493613e-01
4.576673e-01
4.652947e-01
4.722465e-01
4.784988e-01
4.840122e-01
4.887307e-01
4.925995e-01
4.955906e-01
4.978763e-01
4.994256e-01
3.836502e-01
4.014462e-01
4.159728e-01
4.278476e-01
4.380131e-01
4.472240e-01
2.849601e-01
2.667178e-01
2.497465e-01
2.333286e-01
2.166539e-01
1.995066e-01
1.819138e-01
1.639644e-01
1.457507e-01
1.273210e-01
1.088494e-01
9.058874e-02
7.369165e-02
4.557007e-01
4.634693e-01
4.705309e-01
4.768737e-01
4.824483e-01
4.872384e-01
4.912933e-01
4.946856e-01
4.974594e-01
4.993137e-01
5.935913e-02
8.479067e-02
1.116600e-01
1.395080e-01
1.675967e-01
1.953499e-01
2.224127e-01
2.485338e-01
2.735286e-01
2.972837e-01
3.199001e-01
3.416014e-01
3.623883e-01
3.825372e-01
4.012890e-01
4.181696e-01
4.333677e-01
4.475786e-01
4.615607e-01
4.703036e-01
4.787252e-01
4.873943e-01
4.930388e-01
4.973236e-01
3.686354e-01
3.885107e-01
4.020107e-01
4.148868e-01
4.255188e-01
4.354898e-01
4.448170e-01
4.533991e-01
4.612212e-01
4.683557e-01
4.747482e-01
4.803113e-01
4.852290e-01
4.896583e-01
4.934012e-01
4.971974e-01
4.989282e-01
6.088861e-02
8.749754e-02
1.152284e-01
1.436138e-01
1.719843e-01
1.998366e-01
2.268804e-01
2.529377e-01
2.779100e-01
3.017772e-01
3.245916e-01
3.463887e-01
3.671470e-01
3.867630e-01
4.049627e-01
4.216655e-01
4.369131e-01
4.507707e-01
4.627090e-01
4.728385e-01
4.816278e-01
4.889681e-01
4.945693e-01
4.984237e-01
6.208691e-02
8.961849e-02
1.180494e-01
1.468900e-01
1.755028e-01
2.034551e-01
2.305221e-01
2.565855e-01
2.815933e-01
3.055346e-01
3.284094e-01
3.501881e-01
3.708024e-01
3.901428e-01
4.080965e-01
4.246045e-01
4.396166e-01
4.530314e-01
4.647451e-01
4.748577e-01
4.833947e-01
4.903049e-01
4.954972e-01
4.988215e-01
6.305907e-02
9.138162e-02
1.204350e-01
1.496828e-01
1.785087e-01
2.065513e-01
2.336471e-01
2.597234e-01
2.847521e-01
3.114421e-01
2.917562e-01
2.742047e-01
2.589650e-01
2.431400e-01
2.266015e-01
2.094570e-01
1.918331e-01
1.738454e-01
1.555856e-01
1.371429e-01
1.186703e-01
1.002672e-01
8.026750e-02
6.168586e-02
3.087200e-01
3.315980e-01
3.533276e-01
3.738222e-01
3.929929e-01
4.107597e-01
4.270578e-01
4.418171e-01
4.549732e-01
4.664990e-01
4.764006e-01
4.846558e-01
4.912219e-01
4.960376e-01
4.989985e-01
6.390263e-02
9.308186e-02
1.228005e-01
1.524385e-01
1.814457e-01
2.095479e-01
2.366437e-01
2.626990e-01
2.877086e-01
3.116683e-01
3.345333e-01
3.562128e-01
3.766075e-01
3.956278e-01
4.132099e-01
4.292863e-01
4.438034e-01
4.567219e-01
4.680162e-01
4.776602e-01
4.856228e-01
4.918801e-01
4.963858e-01
4.990997e-01
6.496436e-02
9.525173e-02
1.256950e-01
1.556741e-01
1.847996e-01
2.129132e-01
2.399465e-01
2.659055e-01
2.908401e-01
3.147845e-01
3.376455e-01
3.592812e-01
3.795660e-01
3.984094e-01
4.157655e-01
4.315758e-01
4.458181e-01
4.584645e-01
4.694797e-01
4.788148e-01
4.864690e-01
4.924291e-01
4.966691e-01
4.991788e-01
6.696748e-02
9.863730e-02
1.297255e-01
1.598501e-01
1.890296e-01
2.171261e-01
2.439624e-01
2.696540e-01
2.944641e-01
3.184789e-01
3.413769e-01
3.629521e-01
3.831067e-01
4.016933e-01
4.187240e-01
4.341512e-01
4.480841e-01
4.604155e-01
4.710683e-01
4.799999e-01
4.873084e-01
4.929906e-01
4.969686e-01
4.992680e-01
7.067498e-02
1.041816e-01
1.352738e-01
1.651310e-01
1.945770e-01
2.227403e-01
2.489646e-01
2.738491e-01
2.987741e-01
3.232498e-01
3.461216e-01
3.675331e-01
3.876413e-01
4.058383e-01
4.222278e-01
4.370224e-01
4.508533e-01
4.628308e-01
4.728842e-01
4.811995e-01
4.881919e-01
4.936662e-01
3.372576e-01
3.174191e-01
2.950901e-01
2.832924e-01
2.688609e-01
2.531436e-01
2.365885e-01
2.194340e-01
2.018426e-01
1.839258e-01
1.657677e-01
1.474559e-01
1.291189e-01
1.110428e-01
9.345214e-02
7.533637e-02
4.973734e-01
4.993901e-01
7.873009e-02
1.137090e-01
1.409409e-01
1.714129e-01
2.022418e-01
2.307633e-01
2.548537e-01
2.753681e-01
3.049069e-01
3.298347e-01
3.520203e-01
3.728492e-01
3.941501e-01
4.116548e-01
4.252036e-01
4.398943e-01
4.549346e-01
4.663030e-01
4.743346e-01
4.822304e-01
4.890755e-01
4.946617e-01
4.980411e-01
4.995005e-01
4.994651e-01
4.991720e-01
4.976402e-01
4.994965e-01
4.985431e-01
4.967004e-01
4.943256e-01
4.991775e-01
4.976223e-01
4.954800e-01
4.926780e-01
4.894109e-01
4.984779e-01
4.966068e-01
4.940352e-01
4.908150e-01
4.870233e-01
4.827917e-01
4.992557e-01
4.971105e-01
4.952647e-01
4.924083e-01
4.887727e-01
4.844845e-01
4.796591e-01
4.743807e-01
4.643097e-01
4.989622e-01
4.967877e-01
4.939150e-01
4.906495e-01
4.865994e-01
4.818263e-01
4.764437e-01
4.705752e-01
4.529845e-01
4.994589e-01
4.983734e-01
4.960279e-01
4.927804e-01
4.888841e-01
4.843489e-01
4.790868e-01
4.731549e-01
4.666882e-01
4.598796e-01
4.405335e-01
4.991482e-01
4.974554e-01
4.949540e-01
4.914413e-01
4.871059e-01
4.820568e-01
4.762944e-01
4.698260e-01
4.627390e-01
4.552401e-01
4.476822e-01
4.985477e-01
4.965480e-01
4.936769e-01
4.898901e-01
4.851985e-01
4.797041e-01
4.734601e-01
4.664824e-01
4.588092e-01
4.505427e-01
4.420384e-01
4.338985e-01
4.262304e-01
4.094340e-01
4.993601e-01
4.973901e-01
4.954421e-01
4.923270e-01
4.882100e-01
4.831627e-01
4.772595e-01
4.705724e-01
4.631321e-01
4.549498e-01
4.460523e-01
4.363416e-01
4.268490e-01
4.186664e-01
3.452486e-01
3.611917e-01
4.991419e-01
4.973809e-01
4.945273e-01
4.910254e-01
4.865286e-01
4.810741e-01
4.747419e-01
4.676177e-01
4.597584e-01
4.511502e-01
4.417899e-01
4.317694e-01
4.183451e-01
4.102107e-01
4.035474e-01
3.859500e-01
3.540000e-02
3.540000e-02
3.540000e-02
3.540000e-02
3.540000e-02
3.540000e-02
3.540000e-02
3.540000e-02
3.540000e-02
3.540000e-02
3.540000e-02
3.540000e-02
3.540000e-02
3.540000e-02
3.540000e-02
3.540000e-02
3.540000e-02
3.540000e-02
3.540000e-02
3.540000e-02
3.540000e-02
3.540000e-02
3.540000e-02
3.540000e-02
3.540000e-02
3.540000e-02
3.540000e-02
3.540000e-02
3.540000e-02
3.540000e-02
3.540000e-02
3.540000e-02
3.540000e-02
3.540000e-02
3.540000e-02
3.540000e-02
3.540000e-02
3.540000e-02
3.540000e-02
3.540000e-02
3.540000e-02
3.540000e-02
3.540000e-02
3.540000e-02
3.540000e-02
3.540000e-02
3.540000e-02
3.540000e-02
3.540000e-02
3.540000e-02
3.540000e-02
3.540000e-02
3.540000e-02
3.540000e-02
3.540000e-02
3.540000e-02
3.540000e-02
3.540000e-02
3.540000e-02
3.540000e-02
3.540000e-02
3.540000e-02
3.540000e-02
3.540000e-02
3.540000e-02
3.540000e-02
3.540000e-02
3.540000e-02
3.540000e-02
3.540000e-02
3.540000e-02
3.540000e-02
3.540000e-02
3.540000e-02
3.540000e-02
3.540000e-02
3.540000e-02
3.540000e-02
3.540000e-02
3.540000e-02
3.540000e-02
3.540000e-02
3.540000e-02
3.540000e-02
3.540000e-02
3.540000e-02
3.540000e-02
3.540000e-02
3.540000e-02
3.540000e-02
3.540000e-02
3.540000e-02
3.540000e-02
3.540000e-02
3.540000e-02
3.540000e-02
3.540000e-02
3.540000e-02
3.540000e-02
3.540000e-02
3.540000e-02
3.540000e-02
3.540000e-02
3.540000e-02
3.540000e-02
3.540000e-02
3.540000e-02
3.540000e-02
3.540000e-02
3.540000e-02
3.540000e-02
3.540000e-02
3.540000e-02
3.540000e-02
3.540000e-02
3.540000e-02
3.540000e-02
3.540000e-02
3.540000e-02
3.540000e-02
3.540000e-02
3.540000e-02
3.540000e-02
3.540000e-02
3.540000e-02
3.540000e-02
3.540000e-02
3.540000e-02
3.540000e-02
3.540000e-02
3.540000e-02
3.540000e-02
3.540000e-02
3.540000e-02
3.540000e-02
3.540000e-02
3.540000e-02
3.540000e-02
3.540000e-02
3.540000e-02
3.540000e-02
3.540000e-02
3.540000e-02
3.540000e-02
3.540000e-02
3.540000e-02
3.540000e-02
3.540000e-02
3.540000e-02
3.540000e-02
3.540000e-02
3.540000e-02
3.540000e-02
3.540000e-02
3.540000e-02
3.540000e-02
3.540000e-02
3.540000e-02
3.540000e-02
3.540000e-02
3.540000e-02
3.540000e-02
3.540000e-02
3.540000e-02
3.540000e-02
3.540000e-02
3.540000e-02
3.540000e-02
3.540000e-02
3.540000e-02
3.540000e-02
3.540000e-02
3.540000e-02
3.540000e-02
3.540000e-02
3.540000e-02
3.540000e-02
3.540000e-02
3.540000e-02
3.540000e-02
3.540000e-02
3.540000e-02
3.540000e-02
3.540000e-02
3.540000e-02
3.540000e-02
3.540000e-02
3.540000e-02
3.540000e-02
3.540000e-02
3.540000e-02
3.540000e-02
3.540000e-02
3.540000e-02
3.540000e-02
3.540000e-02
3.540000e-02
3.540000e-02
3.540000e-02
3.540000e-02
3.540000e-02
3.540000e-02
3.540000e-02
3.540000e-02
3.540000e-02
3.540000e-02
3.540000e-02
3.540000e-02
3.540000e-02
3.540000e-02
3.540000e-02
3.540000e-02
3.540000e-02
3.540000e-02
3.540000e-02
3.540000e-02
3.540000e-02
3.540000e-02
3.540000e-02
3.540000e-02
3.540000e-02
3.540000e-02
3.540000e-02
3.540000e-02
3.540000e-02
3.540000e-02
3.540000e-02
3.540000e-02
3.540000e-02
3.540000e-02
3.540000e-02
3.540000e-02
3.540000e-02
3.540000e-02
3.540000e-02
3.540000e-02
3.540000e-02
3.540000e-02
3.540000e-02
3.540000e-02
3.540000e-02
3.540000e-02
3.540000e-02
3.540000e-02
3.540000e-02
3.540000e-02
3.540000e-02
3.540000e-02
3.540000e-02
3.540000e-02
3.540000e-02
3.540000e-02
3.540000e-02
3.540000e-02
3.540000e-02
3.540000e-02
3.540000e-02
3.540000e-02
3.540000e-02
3.540000e-02
3.540000e-02
3.540000e-02
3.540000e-02
3.540000e-02
3.540000e-02
3.540000e-02
3.540000e-02
3.540000e-02
3.540000e-02
3.540000e-02
3.540000e-02
3.540000e-02
3.540000e-02
3.540000e-02
3.540000e-02
3.540000e-02
3.540000e-02
3.540000e-02
3.540000e-02
3.540000e-02
3.540000e-02
3.540000e-02
3.540000e-02
3.540000e-02
3.540000e-02
3.540000e-02
3.540000e-02
3.540000e-02
3.540000e-02
3.540000e-02
3.540000e-02
3.540000e-02
3.540000e-02
3.540000e-02
3.540000e-02
3.540000e-02
3.540000e-02
3.540000e-02
3.540000e-02
3.540000e-02
3.540000e-02
3.540000e-02
3.540000e-02
3.540000e-02
3.540000e-02
3.540000e-02
3.540000e-02
3.540000e-02
3.540000e-02
3.540000e-02
3.540000e-02
3.540000e-02
3.540000e-02
3.540000e-02
3.540000e-02
3.540000e-02
3.540000e-02
3.540000e-02
3.540000e-02
3.540000e-02
3.540000e-02
3.540000e-02
3.540000e-02
3.540000e-02
3.540000e-02
3.540000e-02
3.540000e-02
3.540000e-02
3.540000e-02
3.540000e-02
3.540000e-02
3.540000e-02
3.540000e-02
3.540000e-02
3.540000e-02
3.540000e-02
3.540000e-02
3.540000e-02
3.540000e-02
3.540000e-02
3.540000e-02
3.540000e-02
3.540000e-02
3.540000e-02
3.540000e-02
3.540000e-02
3.540000e-02
3.540000e-02
3.540000e-02
3.540000e-02
3.540000e-02
3.540000e-02
3.540000e-02
3.540000e-02
3.540000e-02
3.540000e-02
3.540000e-02
3.540000e-02
3.540000e-02
3.540000e-02
3.540000e-02
3.540000e-02
3.540000e-02
3.540000e-02
3.540000e-02
3.540000e-02
3.540000e-02
3.540000e-02
3.540000e-02
3.540000e-02
1.854000e-01
1.854000e-01
1.854000e-01
1.854000e-01
1.854000e-01
1.854000e-01
1.854000e-01
1.854000e-01
1.854000e-01
1.854000e-01
1.854000e-01
1.854000e-01
1.854000e-01
1.854000e-01
1.854000e-01
1.854000e-01
1.854000e-01
1.854000e-01
1.854000e-01
1.854000e-01
1.854000e-01
1.854000e-01
1.854000e-01
1.854000e-01
1.854000e-01
1.854000e-01
1.854000e-01
1.854000e-01
1.854000e-01
1.854000e-01
1.854000e-01
1.854000e-01
1.854000e-01
1.438506e-01
1.378278e-01
1.533623e-01
1.417358e-01
1.469372e-01
1.345725e-01
1.332141e-01
1.278479e-01
1.231772e-01
1.480630e-01
1.427451e-01
1.374208e-01
1.475193e-01
1.363027e-01
1.451266e-01
5.545517e-02
1.838004e-01
1.813404e-01
1.764206e-01
1.784945e-01
1.767550e-01
1.719018e-01
1.767859e-01
1.735905e-01
1.705041e-01
1.707822e-01
1.670044e-01
1.630612e-01
1.671333e-01
1.629654e-01
1.591193e-01
1.543579e-01
1.828942e-01
1.625421e-01
1.580599e-01
1.534927e-01
1.507063e-01
1.443745e-01
1.397619e-01
1.444478e-01
1.332858e-01
1.579595e-01
1.490896e-01
1.847865e-01
1.384317e-01
1.252783e-01
1.334900e-01
1.279245e-01
1.214238e-01
1.158749e-01
1.129866e-01
1.201744e-01
1.132063e-01
1.075800e-01
1.031399e-01
1.108814e-01
1.026660e-01
9.804791e-02
9.326903e-02
9.114252e-02
8.730688e-02
8.300277e-02
7.583731e-02
7.231589e-02
6.024410e-02
1.036581e-01
8.700741e-02
7.282884e-02
6.116928e-02
4.826530e-02
1.765863e-01
1.720004e-01
1.848286e-01
1.828093e-01
1.841018e-01
1.796113e-01
1.813777e-01
1.775028e-01
1.723661e-01
1.801173e-01
1.827894e-01
1.846834e-01
7.980140e-02
6.601902e-02
4.981896e-02
7.898135e-02
6.196130e-02
4.557675e-02
1.765639e-01
1.719887e-01
1.848765e-01
1.829041e-01
1.841009e-01
1.797024e-01
1.813747e-01
1.774771e-01
1.723141e-01
7.912227e-02
6.570280e-02
4.993950e-02
7.960861e-02
6.237822e-02
4.569814e-02
1.848718e-01
1.828827e-01
1.840075e-01
1.796609e-01
1.811362e-01
1.772017e-01
1.723155e-01
8.033494e-02
6.638322e-02
4.993986e-02
1.846833e-01
1.820240e-01
1.788153e-01
1.767410e-01
1.734276e-01
1.722914e-01
1.654593e-01
7.916503e-02
6.321322e-02
4.652060e-02
1.060914e-01
9.187593e-02
7.643978e-02
5.851747e-02
4.519715e-02
1.770634e-01
1.727095e-01
1.848647e-01
1.829110e-01
1.840891e-01
1.798605e-01
1.813564e-01
1.773906e-01
1.724333e-01
8.147204e-02
6.734363e-02
5.084044e-02
7.904975e-02
6.256817e-02
1.714431e-01
1.756871e-01
1.791830e-01
1.821320e-01
4.592333e-02
1.849045e-01
1.829768e-01
1.801422e-01
8.208673e-02
6.816052e-02
5.035907e-02
1.760793e-01
1.713091e-01
1.847738e-01
1.827077e-01
1.839680e-01
1.792791e-01
1.809527e-01
1.742853e-01
1.765341e-01
1.680415e-01
1.709871e-01
1.032258e-01
8.975794e-02
7.536740e-02
6.170559e-02
4.757529e-02
7.666603e-02
6.027833e-02
4.502675e-02
1.848308e-01
1.827338e-01
1.839120e-01
1.793785e-01
1.809159e-01
1.770464e-01
1.721377e-01
1.633318e-01
7.869223e-02
6.600772e-02
4.960235e-02
1.850138e-01
1.828010e-01
1.792607e-01
1.768036e-01
1.736622e-01
1.723283e-01
1.654969e-01
7.971241e-02
6.288329e-02
4.639355e-02
1.061175e-01
9.193688e-02
7.659458e-02
5.863124e-02
4.524886e-02
1.765212e-01
1.719476e-01
1.848382e-01
1.828821e-01
1.840663e-01
1.798473e-01
1.812703e-01
1.772040e-01
1.721371e-01
8.131770e-02
6.729019e-02
5.083724e-02
7.801733e-02
6.194869e-02
4.566756e-02
1.768579e-01
1.723038e-01
1.848641e-01
1.557819e-01
1.828704e-01
1.841056e-01
1.796631e-01
1.814028e-01
1.775267e-01
1.723709e-01
7.979167e-02
6.584786e-02
4.961624e-02
7.747474e-02
6.152061e-02
4.546760e-02
1.848739e-01
1.829061e-01
1.839356e-01
1.797885e-01
1.808701e-01
1.764925e-01
1.715140e-01
7.874810e-02
6.583642e-02
4.943286e-02
1.848237e-01
1.830998e-01
1.805515e-01
1.763555e-01
1.759988e-01
1.718683e-01
1.679198e-01
7.837435e-02
6.180989e-02
4.569048e-02
1.106149e-01
9.638793e-02
7.742579e-02
6.215409e-02
4.841356e-02
1.848305e-01
1.827994e-01
1.839014e-01
1.690894e-01
1.738819e-01
1.778748e-01
1.809517e-01
1.828814e-01
1.847440e-01
1.796018e-01
1.808846e-01
1.768342e-01
1.720363e-01
7.838752e-02
6.505085e-02
4.962734e-02
1.849536e-01
1.824423e-01
1.778588e-01
1.734346e-01
1.675199e-01
7.877063e-02
6.221564e-02
4.566906e-02
4.998916e-02
1.811817e-01
1.792679e-01
1.759460e-01
1.752845e-01
1.703278e-01
1.689063e-01
1.704823e-01
1.639996e-01
1.558000e-01
1.592754e-01
1.629424e-01
1.649690e-01
1.479592e-01
1.531581e-01
1.573071e-01
1.568026e-01
1.329040e-01
1.218240e-01
1.127378e-01
1.034093e-01
9.306277e-02
8.092515e-02
6.850239e-02
6.001295e-02
4.940043e-02
6.694257e-02
7.313696e-02
8.410021e-02
8.479247e-02
1.019226e-01
9.815875e-02
9.543362e-02
1.130865e-01
1.091860e-01
1.061144e-01
1.156695e-01
1.268967e-01
1.225551e-01
1.187472e-01
1.389273e-01
1.353720e-01
1.307906e-01
1.272599e-01
1.247909e-01
1.515778e-01
1.337657e-01
1.421849e-01
1.465810e-01
1.841243e-01
4.828749e-02
1.842395e-01
1.840741e-01
1.826165e-01
1.806745e-01
1.848736e-01
1.757796e-01
1.734194e-01
1.701797e-01
1.559953e-01
1.612004e-01
1.668116e-01
1.721441e-01
1.764491e-01
1.798829e-01
1.826507e-01
1.844620e-01
1.848698e-01
1.836657e-01
1.812897e-01
1.782500e-01
1.584091e-01
1.846300e-01
1.829422e-01
1.803400e-01
1.767996e-01
1.726921e-01
1.682584e-01
1.637629e-01
1.850644e-01
1.841038e-01
1.817448e-01
1.797128e-01
1.749749e-01
1.705638e-01
1.660977e-01
1.621308e-01
1.548999e-01
1.491964e-01
5.391247e-02
4.474834e-02
7.823437e-02
6.907666e-02
5.725264e-02
4.793325e-02
8.217178e-02
6.711190e-02
1.164410e-01
1.100065e-01
9.976256e-02
8.577935e-02
7.383516e-02
6.318629e-02
5.312112e-02
4.545530e-02
1.009603e-01
8.978514e-02
1.743337e-01
1.678710e-01
1.608300e-01
1.520672e-01
1.418268e-01
1.301466e-01
1.173569e-01
1.847507e-01
1.830176e-01
1.796716e-01
1.740499e-01
1.667452e-01
1.580188e-01
1.483989e-01
1.379445e-01
1.271418e-01
1.170024e-01
1.045146e-01
9.364298e-02
8.049363e-02
6.448842e-02
5.085632e-02
1.290485e-01
1.215740e-01
1.120053e-01
1.002650e-01
8.905263e-02
7.847778e-02
6.825420e-02
5.874891e-02
4.897826e-02
4.520884e-02
1.630093e-01
1.556809e-01
1.462602e-01
1.348078e-01
7.092391e-02
6.406686e-02
5.054951e-02
1.201978e-01
1.067769e-01
9.247936e-02
7.652699e-02
6.091036e-02
4.836411e-02
1.742980e-01
1.677424e-01
1.605421e-01
1.514714e-01
1.411427e-01
1.296590e-01
1.170341e-01
1.031975e-01
9.033340e-02
7.563639e-02
1.847302e-01
1.831510e-01
1.799304e-01
1.747180e-01
1.667868e-01
1.567824e-01
1.465646e-01
1.354908e-01
1.237831e-01
1.121232e-01
1.846864e-01
1.823551e-01
1.788112e-01
1.746140e-01
1.686458e-01