VARIABLES = "X" "Y" "Z" "FREF"
ZONE T="instant 100"
Nodes=1235, Elements=2466
ZONETYPE=FETriangle
DATAPACKING=BLOCK
VARLOCATION = ([1-3]=NODAL, [4]=CELLCENTERED)
5.000000e-01
3.015597e-01
3.216415e-01
3.448917e-01
3.671329e-01
3.855994e-01
4.026046e-01
4.217294e-01
4.400279e-01
4.556270e-01
4.681620e-01
4.781438e-01
4.853504e-01
4.911903e-01
4.959044e-01
4.984616e-01
4.997098e-01
2.850000e-01
2.850000e-01
2.850000e-01
2.850000e-01
4.344263e-01
4.317335e-01
4.265950e-01
4.190199e-01
4.092585e-01
3.972207e-01
3.830869e-01
3.680286e-01
3.515818e-01
3.326393e-01
3.145959e-01
2.983225e-01
4.350000e-01
4.784167e-01
4.507303e-01
3.161046e-01
3.110494e-01
3.383200e-01
3.656775e-01
3.854285e-01
4.027302e-01
4.182343e-01
4.318071e-01
4.437990e-01
4.572322e-01
4.622932e-01
4.714863e-01
2.850000e-01
4.995350e-01
4.974017e-01
4.932059e-01
4.864781e-01
4.776442e-01
4.680444e-01
4.561929e-01
4.409165e-01
4.266452e-01
4.126462e-01
3.940063e-01
3.725109e-01
3.506868e-01
3.311778e-01
3.122132e-01
2.967783e-01
5.000000e-01
4.528694e-01
4.785081e-01
4.350000e-01
2.999021e-01
3.186091e-01
3.396960e-01
3.599970e-01
3.784735e-01
3.923076e-01
4.039078e-01
4.146151e-01
4.223521e-01
4.282161e-01
4.323857e-01
4.345827e-01
2.850000e-01
2.850000e-01
2.850000e-01
4.650661e-01
4.619118e-01
4.565990e-01
4.493177e-01
4.401392e-01
4.290911e-01
4.159898e-01
4.011657e-01
3.774299e-01
3.563238e-01
3.347952e-01
3.115933e-01
5.000000e-01
5.000000e-01
5.000000e-01
5.000000e-01
5.000000e-01
5.000000e-01
5.000000e-01
5.000000e-01
5.000000e-01
5.000000e-01
5.000000e-01
5.000000e-01
5.000000e-01
5.000000e-01
5.000000e-01
5.000000e-01
5.000000e-01
5.000000e-01
5.000000e-01
5.000000e-01
5.000000e-01
5.000000e-01
5.000000e-01
5.000000e-01
5.000000e-01
5.000000e-01
5.000000e-01
5.000000e-01
5.000000e-01
5.000000e-01
5.000000e-01
5.000000e-01
5.000000e-01
2.850000e-01
2.850000e-01
2.850000e-01
2.850000e-01
2.850000e-01
2.850000e-01
2.850000e-01
2.850000e-01
2.850000e-01
2.850000e-01
2.850000e-01
2.850000e-01
2.850000e-01
2.850000e-01
2.850000e-01
2.850000e-01
2.850000e-01
2.850000e-01
2.850000e-01
2.850000e-01
2.850000e-01
2.850000e-01
2.850000e-01
2.850000e-01
2.850000e-01
2.850000e-01
2.850000e-01
2.850000e-01
2.850000e-01
2.850000e-01
2.850000e-01
2.850000e-01
2.850000e-01
4.509872e-01
4.423909e-01
4.463883e-01
4.274517e-01
4.433565e-01
4.356797e-01
4.594582e-01
4.646729e-01
4.396185e-01
4.554846e-01
4.487175e-01
4.493618e-01
4.390624e-01
4.525626e-01
3.124523e-01
4.280212e-01
4.429440e-01
4.554601e-01
4.244175e-01
4.334755e-01
4.413378e-01
4.564928e-01
4.800956e-01
4.402234e-01
4.339699e-01
4.489918e-01
4.603066e-01
4.693262e-01
4.845238e-01
4.854289e-01
4.813018e-01
4.867211e-01
4.907563e-01
4.925736e-01
3.283342e-01
3.316544e-01
3.174984e-01
3.032717e-01
3.451256e-01
3.501995e-01
3.638218e-01
3.659350e-01
3.764454e-01
3.846629e-01
3.750596e-01
3.889642e-01
3.901039e-01
3.981381e-01
4.040915e-01
4.022699e-01
4.074046e-01
4.115052e-01
4.165388e-01
4.214133e-01
4.127721e-01
4.194261e-01
4.268199e-01
4.260975e-01
4.325011e-01
4.368356e-01
4.738893e-01
4.740672e-01
3.532004e-01
3.393578e-01
3.250773e-01
3.096930e-01
4.698962e-01
4.651071e-01
4.585539e-01
4.502741e-01
4.668108e-01
4.614711e-01
4.782046e-01
4.772145e-01
4.748094e-01
4.715387e-01
3.314440e-01
3.527363e-01
3.603548e-01
3.751561e-01
3.807155e-01
3.749904e-01
4.009147e-01
4.026275e-01
3.960103e-01
3.899327e-01
4.231302e-01
4.388597e-01
4.215455e-01
4.128151e-01
4.133808e-01
4.038543e-01
4.968419e-01
4.933023e-01
4.933274e-01
4.880420e-01
4.887079e-01
4.832135e-01
4.808274e-01
4.817530e-01
4.747245e-01
3.736677e-01
3.604400e-01
3.466628e-01
3.326594e-01
3.199377e-01
4.768625e-01
4.721647e-01
4.729303e-01
4.537367e-01
4.638951e-01
4.616965e-01
4.644125e-01
4.668107e-01
4.695777e-01
4.152608e-01
4.347357e-01
4.496871e-01
4.622270e-01
4.566499e-01
4.283876e-01
4.447956e-01
3.011013e-01
3.051482e-01
3.198157e-01
3.073142e-01
3.102090e-01
3.271030e-01
3.403608e-01
3.249048e-01
3.356117e-01
3.491077e-01
3.617068e-01
3.103960e-01
3.286174e-01
3.434587e-01
3.570810e-01
3.707414e-01
3.835493e-01
3.033114e-01
3.177934e-01
3.347274e-01
3.499204e-01
3.640692e-01
3.780697e-01
3.923632e-01
4.066582e-01
4.205764e-01
3.101360e-01
3.257658e-01
3.424960e-01
3.568758e-01
3.702256e-01
3.840346e-01
3.976594e-01
4.144455e-01
4.249894e-01
4.312216e-01
3.921441e-01
3.801452e-01
3.673833e-01
3.537976e-01
3.396647e-01
3.238297e-01
3.072114e-01
4.988088e-01
4.995574e-01
4.960592e-01
4.980238e-01
4.994300e-01
4.918096e-01
4.950685e-01
4.975711e-01
4.993279e-01
4.813258e-01
4.865379e-01
4.908053e-01
4.943389e-01
4.972044e-01
4.992183e-01
4.642672e-01
4.737193e-01
4.804541e-01
4.852894e-01
4.896900e-01
4.935457e-01
4.967144e-01
4.990239e-01
4.841506e-01
4.898772e-01
4.958183e-01
4.985069e-01
4.548143e-01
4.992146e-01
4.666682e-01
4.741086e-01
4.782810e-01
4.833589e-01
4.882093e-01
4.923413e-01
4.957659e-01
4.985005e-01
3.061721e-01
3.291588e-01
3.499327e-01
3.701252e-01
3.898587e-01
4.082304e-01
4.248486e-01
4.397335e-01
4.529299e-01
4.648166e-01
4.766087e-01
4.847783e-01
4.911524e-01
4.959968e-01
4.989168e-01
3.084243e-01
4.100637e-01
3.978790e-01
3.865363e-01
3.745509e-01
3.609244e-01
3.464403e-01
3.319382e-01
3.188706e-01
3.313468e-01
3.530221e-01
3.735125e-01
3.928464e-01
4.107289e-01
4.270358e-01
4.417282e-01
4.549058e-01
4.667115e-01
4.770742e-01
4.852835e-01
4.916350e-01
4.962588e-01
4.990445e-01
3.093382e-01
3.326376e-01
3.545721e-01
3.751408e-01
3.943102e-01
4.120298e-01
4.282158e-01
4.428598e-01
4.559643e-01
4.675265e-01
4.774608e-01
4.855454e-01
4.918489e-01
4.963613e-01
4.990886e-01
3.097127e-01
3.331680e-01
3.552040e-01
3.757701e-01
3.949010e-01
4.125666e-01
4.287342e-01
4.433587e-01
4.564117e-01
4.678606e-01
4.776284e-01
4.856557e-01
4.919118e-01
4.964015e-01
4.990983e-01
3.098302e-01
3.333444e-01
3.553896e-01
3.759628e-01
3.950797e-01
4.127396e-01
4.289042e-01
4.435271e-01
4.565623e-01
4.679633e-01
4.776868e-01
4.856826e-01
4.919309e-01
4.964077e-01
4.991013e-01
3.098622e-01
3.333815e-01
3.554328e-01
3.760031e-01
3.951194e-01
4.127783e-01
4.289445e-01
4.435678e-01
4.565978e-01
4.679889e-01
4.776974e-01
4.856886e-01
4.494015e-01
4.587456e-01
4.662599e-01
4.728182e-01
4.792251e-01
4.849717e-01
4.898177e-01
4.938248e-01
4.969912e-01
4.990209e-01
4.997758e-01
4.919328e-01
4.964093e-01
4.991014e-01
3.098667e-01
3.333879e-01
3.554380e-01
3.760088e-01
3.951248e-01
4.127839e-01
4.289505e-01
4.435741e-01
4.566036e-01
4.679922e-01
4.776991e-01
4.856888e-01
4.919330e-01
4.964093e-01
4.991015e-01
3.098663e-01
3.333876e-01
3.554377e-01
3.760089e-01
3.951252e-01
4.127842e-01
4.289509e-01
4.435746e-01
4.566041e-01
4.679925e-01
4.776991e-01
4.856888e-01
4.919330e-01
4.302519e-01
4.142069e-01
4.021169e-01
3.944260e-01
3.822399e-01
3.681243e-01
3.536470e-01
3.401092e-01
3.239687e-01
3.063255e-01
4.964093e-01
4.991016e-01
3.098639e-01
3.333838e-01
3.554370e-01
3.760086e-01
3.951251e-01
4.127842e-01
4.289509e-01
4.435746e-01
4.566041e-01
4.679925e-01
4.776991e-01
4.856888e-01
4.919331e-01
4.964093e-01
4.991016e-01
3.098485e-01
3.333807e-01
3.554342e-01
3.760084e-01
3.951250e-01
4.127842e-01
4.289509e-01
4.435746e-01
4.566041e-01
4.679925e-01
4.776991e-01
4.856888e-01
4.919331e-01
4.964093e-01
4.991015e-01
3.098544e-01
3.333748e-01
3.554363e-01
3.760076e-01
3.951252e-01
4.127846e-01
4.289513e-01
4.435750e-01
4.566043e-01
4.679927e-01
4.776992e-01
4.856890e-01
4.919332e-01
4.964094e-01
4.991015e-01
3.098309e-01
3.333891e-01
3.554444e-01
3.760178e-01
3.951307e-01
4.127896e-01
4.289574e-01
4.435798e-01
4.566086e-01
4.679956e-01
4.777022e-01
4.856920e-01
4.919354e-01
4.964102e-01
4.991016e-01
3.098821e-01
3.334726e-01
3.555405e-01
3.760817e-01
3.951767e-01
4.128324e-01
4.289956e-01
4.436194e-01
4.566381e-01
4.680215e-01
4.777241e-01
4.696619e-01
4.758690e-01
4.816720e-01
4.868734e-01
4.911946e-01
4.945332e-01
4.972751e-01
4.992278e-01
4.857123e-01
4.919499e-01
4.964172e-01
4.991031e-01
3.101077e-01
3.338658e-01
3.559284e-01
3.763839e-01
3.953947e-01
4.130153e-01
4.291898e-01
4.437866e-01
4.567914e-01
4.681389e-01
4.778274e-01
4.858029e-01
4.920166e-01
4.964478e-01
4.991106e-01
3.108229e-01
3.350991e-01
3.571530e-01
3.772795e-01
3.960467e-01
4.136375e-01
4.297828e-01
4.443810e-01
4.572698e-01
4.685345e-01
4.781515e-01
4.860987e-01
4.922279e-01
4.629050e-01
4.965480e-01
4.991322e-01
3.126522e-01
3.382728e-01
3.599503e-01
3.791706e-01
3.974420e-01
4.150491e-01
4.313214e-01
4.457958e-01
4.584866e-01
4.694370e-01
4.788990e-01
4.868281e-01
4.927705e-01
4.967676e-01
4.991719e-01
3.146795e-01
3.331847e-01
3.591884e-01
3.838436e-01
3.170252e-01
3.453940e-01
3.648151e-01
3.813711e-01
3.994716e-01
4.178530e-01
4.342730e-01
4.486911e-01
4.606992e-01
4.709487e-01
4.800692e-01
4.884391e-01
4.939432e-01
4.969647e-01
4.992010e-01
4.994771e-01
4.991552e-01
4.976439e-01
4.994902e-01
4.735869e-01
4.789214e-01
4.840969e-01
4.887860e-01
4.926831e-01
4.956030e-01
4.973889e-01
4.993510e-01
4.985304e-01
4.966410e-01
4.941710e-01
4.991944e-01
4.976728e-01
4.954466e-01
4.924459e-01
4.889172e-01
4.985622e-01
4.967509e-01
4.941195e-01
4.906488e-01
4.865137e-01
4.821411e-01
2.850000e-01
2.850000e-01
2.850000e-01
2.850000e-01
2.850000e-01
2.850000e-01
2.850000e-01
2.850000e-01
2.850000e-01
2.850000e-01
2.850000e-01
2.850000e-01
2.850000e-01
2.850000e-01
2.850000e-01
2.850000e-01
2.850000e-01
2.850000e-01
2.850000e-01
2.850000e-01
2.850000e-01
2.850000e-01
2.850000e-01
2.850000e-01
2.850000e-01
2.850000e-01
2.850000e-01
2.850000e-01
2.850000e-01
2.850000e-01
2.850000e-01
2.850000e-01
2.850000e-01
2.850000e-01
2.850000e-01
2.850000e-01
2.850000e-01
2.850000e-01
2.850000e-01
2.850000e-01
2.850000e-01
2.850000e-01
2.850000e-01
2.850000e-01
2.850000e-01
2.850000e-01
2.850000e-01
2.850000e-01
2.850000e-01
2.850000e-01
2.850000e-01
2.850000e-01
2.850000e-01
2.850000e-01
2.850000e-01
2.850000e-01
2.850000e-01
2.850000e-01
2.850000e-01
2.850000e-01
2.850000e-01
2.850000e-01
2.850000e-01
2.850000e-01
2.850000e-01
2.850000e-01
2.850000e-01
2.850000e-01
2.850000e-01
2.850000e-01
2.850000e-01
2.850000e-01
2.850000e-01
2.850000e-01
2.850000e-01
2.850000e-01
2.850000e-01
2.850000e-01
2.850000e-01
2.850000e-01
2.850000e-01
2.850000e-01
2.850000e-01
2.850000e-01
2.850000e-01
2.850000e-01
2.850000e-01
2.850000e-01
2.850000e-01
2.850000e-01
2.850000e-01
2.850000e-01
2.850000e-01
4.350000e-01
4.350000e-01
4.350000e-01
4.350000e-01
4.350000e-01
4.350000e-01
4.350000e-01
4.350000e-01
4.350000e-01
4.350000e-01
4.350000e-01
4.350000e-01
4.350000e-01
4.350000e-01
4.350000e-01
4.350000e-01
4.350000e-01
4.350000e-01
4.350000e-01
4.350000e-01
4.350000e-01
4.350000e-01
4.350000e-01
4.350000e-01
4.350000e-01
4.350000e-01
4.350000e-01
4.350000e-01
4.350000e-01
4.350000e-01
4.350000e-01
4.350000e-01
4.350000e-01
4.033678e-01
3.779741e-01
3.800158e-01
4.018225e-01
3.955988e-01
4.073719e-01
4.311030e-01
3.465482e-01
4.168143e-01
4.269820e-01
4.263565e-01
4.208197e-01
4.231885e-01
4.161843e-01
4.109506e-01
4.176804e-01
4.125101e-01
4.057456e-01
4.032716e-01
3.995996e-01
4.027605e-01
3.929530e-01
4.333958e-01
4.343476e-01
3.897642e-01
3.920398e-01
3.919666e-01
3.893497e-01
3.686742e-01
3.812290e-01
3.724824e-01
3.607059e-01
3.641168e-01
3.577001e-01
3.410391e-01
3.964602e-01
3.861512e-01
3.729010e-01
3.643740e-01
3.630213e-01
3.640372e-01
3.629851e-01
4.094693e-01
3.982427e-01
3.873044e-01
3.975209e-01
3.868523e-01
3.730702e-01
3.624902e-01
4.296891e-01
4.320748e-01
4.339817e-01
3.609659e-01
3.257755e-01
3.430398e-01
3.436472e-01
3.742958e-01
3.635658e-01
3.596336e-01
3.863728e-01
3.831290e-01
3.775072e-01
3.723728e-01
3.981670e-01
3.936458e-01
3.878792e-01
3.824958e-01
4.328493e-01
4.299157e-01
4.216031e-01
4.217449e-01
4.096191e-01
4.087643e-01
4.136569e-01
4.172257e-01
3.899727e-01
4.006887e-01
4.116038e-01
4.344755e-01
4.345457e-01
4.345870e-01
4.345121e-01
4.344637e-01
4.345284e-01
4.344823e-01
4.344931e-01
4.236674e-01
4.274581e-01
4.305692e-01
4.330599e-01
4.343267e-01
4.346252e-01
4.347231e-01
4.345739e-01
4.346513e-01
4.343686e-01
4.301748e-01
4.335774e-01
4.333426e-01
4.317807e-01
4.289935e-01
4.256189e-01
4.343835e-01
4.328376e-01
4.302443e-01
4.270448e-01
4.229474e-01
4.187528e-01
4.340392e-01
4.318299e-01
4.287351e-01
4.250176e-01
4.203194e-01
4.136363e-01
4.109323e-01
3.029021e-01
3.214312e-01
3.043467e-01
3.515468e-01
3.382386e-01
3.230601e-01
3.055765e-01
3.654162e-01
3.534096e-01
3.402750e-01
3.254046e-01
4.153882e-01
4.206073e-01
4.249262e-01
4.284941e-01
4.323772e-01
4.340505e-01
3.074653e-01
4.335935e-01
4.302717e-01
4.247113e-01
4.169064e-01
4.055660e-01
3.931027e-01
3.791880e-01
3.642636e-01
3.475594e-01
3.245824e-01
3.082228e-01
3.918115e-01
3.795111e-01
3.673696e-01
3.557349e-01
3.433853e-01
3.294285e-01
3.111247e-01
3.031218e-01
3.565118e-01
3.338771e-01
3.147710e-01
4.135353e-01
4.022000e-01
3.919768e-01
3.791376e-01
4.332736e-01
4.299444e-01
4.234062e-01
4.336679e-01
4.289349e-01
4.220935e-01
4.144738e-01
4.029189e-01
3.920609e-01
3.818208e-01
3.678924e-01
3.508352e-01
3.312293e-01
3.099193e-01
3.478013e-01
3.288598e-01
3.079333e-01
4.142036e-01
4.026954e-01
3.920250e-01
3.777803e-01
4.339616e-01
4.312035e-01
4.242975e-01
4.334236e-01
4.279453e-01
3.904179e-01
3.784515e-01
3.677182e-01
3.553661e-01
3.412603e-01
3.251609e-01
3.083774e-01
2.962540e-01
4.217073e-01
4.165074e-01
4.075406e-01
3.917831e-01
3.754296e-01
3.626861e-01
3.464220e-01
3.277627e-01
3.071858e-01
3.461981e-01
3.274361e-01
3.069778e-01
4.176141e-01
4.078497e-01
3.951653e-01
3.800765e-01
4.334212e-01
4.296270e-01
4.237630e-01
4.338843e-01
4.301412e-01
4.238231e-01
4.160166e-01
4.049556e-01
3.936316e-01
3.788618e-01
3.635480e-01
3.463149e-01
3.274061e-01
3.069360e-01
3.463979e-01
4.048074e-01
3.273990e-01
3.069166e-01
4.336267e-01
4.292313e-01
4.229723e-01
4.154790e-01
4.062896e-01
3.965344e-01
3.820846e-01
3.637950e-01
3.462232e-01
3.272776e-01
3.068522e-01
4.135428e-01
4.039986e-01
3.943396e-01
3.803734e-01
4.330116e-01
4.293102e-01
4.225316e-01
4.333309e-01
4.281481e-01
3.744164e-01
3.636357e-01
3.507008e-01
3.376303e-01
3.232261e-01
3.059901e-01
4.211143e-01
4.142934e-01
4.049553e-01
3.920877e-01
3.767761e-01
3.628191e-01
3.458121e-01
3.269780e-01
3.066224e-01
3.452283e-01
3.261317e-01
3.059772e-01
4.330832e-01
4.294316e-01
4.214477e-01
4.329479e-01
4.265994e-01
4.198475e-01
4.120571e-01
4.019319e-01
3.905474e-01
3.772698e-01
3.614927e-01
3.433234e-01
3.239581e-01
3.044367e-01
4.331668e-01
4.292221e-01
4.226946e-01
4.150132e-01
4.045722e-01
3.922439e-01
3.762474e-01
3.594112e-01
3.389645e-01
3.191074e-01
3.025137e-01
4.327264e-01
4.295580e-01
4.230148e-01
4.155720e-01
4.051713e-01
3.926445e-01
3.777764e-01
3.563758e-01
3.399889e-01
3.229789e-01
3.062919e-01
4.329267e-01
4.307183e-01
4.261639e-01
4.172716e-01
4.065302e-01
3.610787e-01
3.457053e-01
3.315231e-01
3.212561e-01
3.050511e-01
3.932256e-01
3.797517e-01
3.655689e-01
3.496621e-01
3.293730e-01
3.089633e-01
3.541425e-01
3.360595e-01
3.124941e-01
4.336013e-01
4.300223e-01
4.241672e-01
4.154856e-01
4.049355e-01
3.939002e-01
3.820114e-01
3.677490e-01
3.505881e-01
3.312594e-01
3.090111e-01
4.154238e-01
4.046984e-01
3.907095e-01
3.773574e-01
4.332075e-01
4.290306e-01
4.225130e-01
4.334931e-01
4.294531e-01
4.229950e-01
4.131981e-01
4.001060e-01
3.894916e-01
3.788836e-01
3.645849e-01
3.477428e-01
3.287054e-01
3.234322e-01
3.081691e-01
3.075646e-01
3.460258e-01
3.274019e-01
3.069284e-01
4.144304e-01
4.025935e-01
3.891534e-01
3.761972e-01
4.331685e-01
4.297335e-01
4.230799e-01
4.335058e-01
4.283359e-01
4.210982e-01
4.131505e-01
4.033594e-01
3.902932e-01
3.740654e-01
3.612752e-01
3.449088e-01
3.265167e-01
3.065115e-01
3.433989e-01
3.253437e-01
3.060560e-01
4.336866e-01
4.307232e-01
4.242477e-01
3.033933e-01
4.332812e-01
4.277572e-01
4.215879e-01
4.159747e-01
4.064915e-01
3.944592e-01
3.781743e-01
3.581473e-01
3.394944e-01
3.246132e-01
3.057063e-01
4.619853e-01
4.703831e-01
4.680861e-01
4.676068e-01
4.674970e-01
4.674899e-01
4.675315e-01
4.675009e-01
4.674750e-01
4.674695e-01
4.674720e-01
4.674715e-01
4.674648e-01
4.674707e-01
4.674651e-01
4.674465e-01
4.674628e-01
4.674676e-01
4.674659e-01
4.674639e-01
4.674691e-01
4.674706e-01
4.674612e-01
4.674547e-01
4.669703e-01
4.674703e-01
4.674660e-01
4.674816e-01
4.674699e-01
4.674889e-01
4.674527e-01
4.673848e-01
-4.625929e-18
3.988254e-01
3.828142e-01
3.620079e-01
3.394310e-01
3.182972e-01
2.964954e-01
2.685969e-01
2.374351e-01
2.059225e-01
1.755686e-01
1.462141e-01
1.201456e-01
9.344589e-02
6.386535e-02
3.919264e-02
1.703330e-02
4.108223e-01
3.523868e-01
3.834841e-01
3.286335e-01
2.233450e-02
5.320905e-02
8.509797e-02
1.168217e-01
1.474195e-01
1.773153e-01
2.060812e-01
2.319050e-01
2.561548e-01
2.803143e-01
3.004237e-01
3.165891e-01
-1.040834e-17
0.000000e+00
0.000000e+00
3.205729e-01
3.451770e-01
3.202030e-01
2.960007e-01
2.639327e-01
2.356521e-01
2.066589e-01
1.768643e-01
1.463336e-01
1.124138e-01
7.470116e-02
3.801384e-02
4.108223e-01
2.155954e-02
5.090677e-02
8.214583e-02
1.154947e-01
1.478378e-01
1.758818e-01
2.046657e-01
2.357810e-01
2.607179e-01
2.823528e-01
3.078296e-01
3.335200e-01
3.563969e-01
3.745948e-01
3.905418e-01
4.023961e-01
-4.625929e-18
0.000000e+00
0.000000e+00
8.095376e-18
3.150932e-01
2.961642e-01
2.717197e-01
2.441867e-01
2.144361e-01
1.879355e-01
1.615038e-01
1.316028e-01
1.041330e-01
7.652414e-02
4.761917e-02
1.904845e-02
3.286335e-01
3.879344e-01
3.548719e-01
2.915757e-02
6.387242e-02
9.511306e-02
1.252054e-01
1.544153e-01
1.832726e-01
2.126800e-01
2.463473e-01
2.754249e-01
3.014659e-01
3.258560e-01
3.528851e-01
-1.387779e-17
-1.387779e-17
-1.387779e-17
-1.387779e-17
-1.387779e-17
-1.387779e-17
-1.387779e-17
-1.387779e-17
-1.387779e-17
-1.387779e-17
-1.387779e-17
-1.387779e-17
-1.387779e-17
-1.387779e-17
-1.387779e-17
-1.387779e-17
-1.387779e-17
-1.387779e-17
-1.387779e-17
-1.387779e-17
-1.387779e-17
-1.387779e-17
-1.387779e-17
-1.387779e-17
-1.387779e-17
-1.387779e-17
-1.387779e-17
-1.387779e-17
-1.387779e-17
-1.387779e-17
-1.387779e-17
-1.387779e-17
-1.387779e-17
4.108223e-01
4.108223e-01
4.108223e-01
4.108223e-01
4.108223e-01
4.108223e-01
4.108223e-01
4.108223e-01
4.108223e-01
4.108223e-01
4.108223e-01
4.108223e-01
4.108223e-01
4.108223e-01
4.108223e-01
4.108223e-01
4.108223e-01
4.108223e-01
4.108223e-01
4.108223e-01
4.108223e-01
4.108223e-01
4.108223e-01
4.108223e-01
4.108223e-01
4.108223e-01
4.108223e-01
4.108223e-01
4.108223e-01
4.108223e-01
4.108223e-01
4.108223e-01
4.108223e-01
2.158947e-01
2.330028e-01
2.252497e-01
2.593935e-01
2.311601e-01
2.453227e-01
1.972263e-01
1.846053e-01
2.381923e-01
2.062373e-01
2.205734e-01
2.192577e-01
2.392158e-01
2.125725e-01
3.903506e-01
2.584528e-01
2.319496e-01
2.062914e-01
2.643290e-01
2.491968e-01
2.349914e-01
2.039958e-01
1.396719e-01
2.370725e-01
2.483347e-01
2.200145e-01
1.952379e-01
1.724323e-01
1.234370e-01
1.198283e-01
1.354568e-01
1.144664e-01
9.569874e-02
8.585603e-02
3.770897e-01
3.741729e-01
3.862574e-01
3.975252e-01
3.617850e-01
3.568758e-01
3.429776e-01
3.407221e-01
3.290727e-01
3.194283e-01
3.306514e-01
3.141764e-01
3.127602e-01
3.024666e-01
2.944658e-01
2.969494e-01
2.898646e-01
2.840132e-01
2.765781e-01
2.690926e-01
2.821688e-01
2.721796e-01
2.604319e-01
2.616121e-01
2.508840e-01
2.432584e-01
1.594645e-01
1.589349e-01
3.539061e-01
3.672006e-01
3.799010e-01
3.925433e-01
1.708731e-01
1.835085e-01
1.993197e-01
2.173780e-01
1.791303e-01
1.924693e-01
1.460149e-01
1.492191e-01
1.567037e-01
1.662867e-01
3.743593e-01
3.543686e-01
3.466186e-01
3.305419e-01
3.241230e-01
3.307298e-01
2.987765e-01
2.964643e-01
3.052472e-01
3.129736e-01
2.663848e-01
2.395875e-01
2.688855e-01
2.821059e-01
2.812762e-01
2.947909e-01
5.610801e-02
8.156512e-02
8.141289e-02
1.086968e-01
1.056625e-01
1.284707e-01
1.371313e-01
1.338433e-01
1.569606e-01
3.322235e-01
3.465299e-01
3.603122e-01
3.732797e-01
3.842393e-01
1.503401e-01
1.645008e-01
1.622865e-01
2.100547e-01
1.865511e-01
1.919279e-01
1.852595e-01
1.791305e-01
1.717463e-01
2.784933e-01
2.469917e-01
2.185897e-01
1.906467e-01
2.036441e-01
2.578450e-01
2.283788e-01
3.991716e-01
3.960866e-01
3.843409e-01
3.944084e-01
3.921356e-01
3.781582e-01
3.662711e-01
3.800485e-01
3.706276e-01
3.579438e-01
3.452074e-01
3.919876e-01
3.768429e-01
3.633677e-01
3.499902e-01
3.354859e-01
3.207646e-01
3.974949e-01
3.860147e-01
3.714264e-01
3.571494e-01
3.427150e-01
3.272053e-01
3.099212e-01
2.909108e-01
2.703987e-01
3.921934e-01
3.793108e-01
3.642753e-01
3.501994e-01
3.360551e-01
3.201834e-01
3.030958e-01
2.797050e-01
2.634084e-01
2.530768e-01
3.101983e-01
3.247917e-01
3.391600e-01
3.533090e-01
3.669167e-01
3.809650e-01
3.944884e-01
3.449258e-02
2.103357e-02
6.265192e-02
4.441092e-02
2.386798e-02
9.012963e-02
7.005150e-02
4.922426e-02
2.591558e-02
1.353717e-01
1.152428e-01
9.544728e-02
7.502709e-02
5.279984e-02
2.794832e-02
1.856231e-01
1.599690e-01
1.384337e-01
1.203921e-01
1.010136e-01
8.007903e-02
5.722570e-02
3.122727e-02
1.248928e-01
1.001017e-01
6.453104e-02
3.861232e-02
2.077112e-01
2.801378e-02
1.795014e-01
1.588113e-01
1.457646e-01
1.279224e-01
1.079429e-01
8.717821e-02
6.493191e-02
3.869400e-02
3.952956e-01
3.763702e-01
3.571374e-01
3.361657e-01
3.130658e-01
2.887004e-01
2.636355e-01
2.379799e-01
2.117889e-01
1.842432e-01
1.511426e-01
1.224336e-01
9.364459e-02
6.314411e-02
3.289395e-02
3.935409e-01
2.860905e-01
3.028074e-01
3.171588e-01
3.312275e-01
3.460254e-01
3.605262e-01
3.739212e-01
3.851254e-01
3.744453e-01
3.540839e-01
3.323980e-01
3.093084e-01
2.851347e-01
2.600778e-01
2.342568e-01
2.075108e-01
1.793889e-01
1.496671e-01
1.204158e-01
9.107718e-02
6.105066e-02
3.089651e-02
3.928229e-01
3.732992e-01
3.525318e-01
3.305592e-01
3.074401e-01
2.832516e-01
2.581303e-01
2.321103e-01
2.051744e-01
1.772540e-01
1.484292e-01
1.193551e-01
8.991451e-02
6.021166e-02
3.017645e-02
3.925278e-01
3.728258e-01
3.518951e-01
3.298436e-01
3.066809e-01
2.824691e-01
2.572683e-01
2.311558e-01
2.041772e-01
1.763702e-01
1.478888e-01
1.189055e-01
8.957014e-02
5.987974e-02
3.001467e-02
3.924350e-01
3.726681e-01
3.517076e-01
3.296239e-01
3.064507e-01
2.822163e-01
2.569848e-01
2.308326e-01
2.038403e-01
1.760976e-01
1.477002e-01
1.187957e-01
8.946507e-02
5.982806e-02
2.996431e-02
3.924097e-01
3.726350e-01
3.516639e-01
3.295780e-01
3.063995e-01
2.821596e-01
2.569175e-01
2.307545e-01
2.037607e-01
1.760296e-01
1.476658e-01
1.187713e-01
2.191764e-01
1.988780e-01
1.805595e-01
1.626130e-01
1.426299e-01
1.216652e-01
1.003924e-01
7.833939e-02
5.476981e-02
3.127600e-02
1.497195e-02
8.945456e-02
5.981483e-02
2.996250e-02
3.924062e-01
3.726292e-01
3.516587e-01
3.295716e-01
3.063925e-01
2.821515e-01
2.569075e-01
2.307422e-01
2.037478e-01
1.760207e-01
1.476603e-01
1.187702e-01
8.945322e-02
5.981487e-02
2.996101e-02
3.924066e-01
3.726295e-01
3.516590e-01
3.295713e-01
3.063921e-01
2.821510e-01
2.569069e-01
2.307414e-01
2.037467e-01
1.760198e-01
1.476603e-01
1.187702e-01
8.945322e-02
2.547220e-01
2.800584e-01
2.971566e-01
3.072916e-01
3.223238e-01
3.383556e-01
3.534598e-01
3.665047e-01
3.808468e-01
3.951768e-01
5.981458e-02
2.996067e-02
3.924084e-01
3.726328e-01
3.516597e-01
3.295718e-01
3.063922e-01
2.821510e-01
2.569069e-01
2.307414e-01
2.037467e-01
1.760198e-01
1.476603e-01
1.187702e-01
8.945318e-02
5.981458e-02
2.996028e-02
3.924206e-01
3.726356e-01
3.516625e-01
3.295720e-01
3.063923e-01
2.821510e-01
2.569069e-01
2.307414e-01
2.037467e-01
1.760198e-01
1.476603e-01
1.187702e-01
8.945318e-02
5.981457e-02
2.996081e-02
3.924159e-01
3.726409e-01
3.516604e-01
3.295729e-01
3.063920e-01
2.821504e-01
2.569062e-01
2.307407e-01
2.037463e-01
1.760194e-01
1.476599e-01
1.187694e-01
8.945221e-02
5.981427e-02
2.996166e-02
3.924345e-01
3.726281e-01
3.516522e-01
3.295613e-01
3.063849e-01
2.821431e-01
2.568960e-01
2.307313e-01
2.037366e-01
1.760116e-01
1.476504e-01
1.187573e-01
8.944027e-02
5.980720e-02
2.995915e-02
3.923941e-01
3.725534e-01
3.515550e-01
3.294883e-01
3.063256e-01
2.820805e-01
2.568322e-01
2.306553e-01
2.036704e-01
1.759428e-01
1.475794e-01
1.715158e-01
1.534558e-01
1.341347e-01
1.138171e-01
9.342304e-02
7.373540e-02
5.212960e-02
2.777777e-02
1.186742e-01
8.936075e-02
5.974933e-02
2.993418e-02
3.922158e-01
3.722010e-01
3.511624e-01
3.291430e-01
3.060441e-01
2.818127e-01
2.565075e-01
2.303333e-01
2.033264e-01
1.756303e-01
1.472447e-01
1.183026e-01
8.899267e-02
5.949479e-02
2.980925e-02
3.916492e-01
3.710911e-01
3.499167e-01
3.281162e-01
3.051999e-01
2.808987e-01
2.555128e-01
2.291844e-01
2.022481e-01
1.745722e-01
1.461886e-01
1.170814e-01
8.781625e-02
1.889946e-01
5.865198e-02
2.944594e-02
3.901905e-01
3.682003e-01
3.470386e-01
3.259289e-01
3.033808e-01
2.788086e-01
2.529068e-01
2.264201e-01
1.994744e-01
1.721304e-01
1.437211e-01
1.140107e-01
8.471860e-02
5.676189e-02
2.876514e-02
3.885573e-01
3.728109e-01
3.478271e-01
3.204124e-01
3.866459e-01
3.615287e-01
3.419210e-01
3.233513e-01
3.007033e-01
2.745885e-01
2.478043e-01
2.206271e-01
1.943096e-01
1.679504e-01
1.397627e-01
1.068985e-01
7.758915e-02
5.500976e-02
2.825512e-02
2.286143e-02
2.905317e-02
4.848197e-02
2.257262e-02
1.603603e-01
1.436463e-01
1.251008e-01
1.053009e-01
8.522544e-02
6.616393e-02
5.103218e-02
2.546722e-02
3.830715e-02
5.785963e-02
7.612496e-02
2.837246e-02
4.818446e-02
6.732538e-02
8.658518e-02
1.046901e-01
3.789153e-02
5.690782e-02
7.645873e-02
9.624846e-02
1.153446e-01
1.324384e-01
3.286335e-01
3.286335e-01
3.286335e-01
3.286335e-01
3.286335e-01
3.286335e-01
3.286335e-01
3.286335e-01
3.286335e-01
3.286335e-01
3.286335e-01
3.286335e-01
3.286335e-01
3.286335e-01
3.286335e-01
3.286335e-01
3.286335e-01
3.286335e-01
3.286335e-01
3.286335e-01
3.286335e-01
3.286335e-01
3.286335e-01
3.286335e-01
3.286335e-01
3.286335e-01
3.286335e-01
3.286335e-01
3.286335e-01
3.286335e-01
3.286335e-01
3.286335e-01
3.286335e-01
3.569096e-01
3.847973e-01
3.704664e-01
3.559188e-01
3.833266e-01
3.559385e-01
3.833360e-01
3.559587e-01
3.833668e-01
3.574078e-01
3.850913e-01
3.713926e-01
3.708053e-01
3.558900e-01
3.833149e-01
3.559453e-01
3.833526e-01
3.558761e-01
3.832472e-01
3.780181e-01
3.523640e-01
3.850194e-01
3.559233e-01
3.839015e-01
3.595858e-01
3.829461e-01
3.554550e-01
3.872542e-01
3.520303e-01
3.834130e-01
3.553464e-01
3.832235e-01
3.558366e-01
3.832971e-01
3.559367e-01
3.833334e-01
3.559427e-01
3.833400e-01
3.560402e-01
3.834783e-01
3.563501e-01
3.838770e-01
3.607009e-01
3.880693e-01
3.521577e-01
3.839998e-01
3.590527e-01
3.871102e-01
3.574030e-01
3.854064e-01
3.492319e-01
3.825310e-01
3.833616e-01
3.559462e-01
3.547289e-01
3.829299e-01
3.556823e-01
3.832195e-01
3.559384e-01
3.833469e-01
-3.122502e-17
2.428613e-17
-3.122502e-17
2.428613e-17
-3.122502e-17
2.428613e-17
-3.122502e-17
2.428613e-17
-3.122502e-17
2.428613e-17
-3.122502e-17
2.428613e-17
-3.122502e-17
2.428613e-17
-3.122502e-17
2.428613e-17
-3.122502e-17
2.428613e-17
-3.122502e-17
2.428613e-17
-3.122502e-17
2.428613e-17
-3.122502e-17
2.428613e-17
-3.122502e-17
2.428613e-17
-3.122502e-17
2.428613e-17
-3.122502e-17
2.428613e-17
-3.122502e-17
2.428613e-17
-3.122502e-17
1.628479e-01
2.153150e-01
2.116908e-01
1.666242e-01
1.809049e-01
1.525553e-01
5.809652e-02
2.629246e-01
1.244622e-01
8.313462e-02
8.628522e-02
1.101627e-01
1.006802e-01
1.265530e-01
1.426346e-01
1.215241e-01
1.380595e-01
1.568295e-01
1.630858e-01
1.718871e-01
1.643440e-01
1.865823e-01
3.732389e-02
2.381566e-02
1.931551e-01
1.884934e-01
1.886457e-01
1.939893e-01
2.308772e-01
2.094982e-01
2.246817e-01
2.431383e-01
2.379999e-01
2.475392e-01
2.700321e-01
1.790092e-01
2.002804e-01
2.239863e-01
2.376059e-01
2.396675e-01
2.381217e-01
2.397224e-01
1.468329e-01
1.750080e-01
1.980411e-01
1.766412e-01
1.989229e-01
2.237043e-01
2.404701e-01
6.776646e-02
5.036201e-02
2.974769e-02
2.427521e-01
2.882626e-01
2.674858e-01
2.667051e-01
2.216475e-01
2.388408e-01
2.447216e-01
1.998527e-01
2.060029e-01
2.161326e-01
2.248633e-01
1.751801e-01
1.851161e-01
1.969131e-01
2.071762e-01
4.320294e-02
6.631329e-02
1.071254e-01
1.065656e-01
1.464146e-01
1.487841e-01
1.345844e-01
1.230761e-01
1.927338e-01
1.693327e-01
1.407385e-01
2.135545e-02
1.987559e-02
1.894992e-02
2.059637e-02
2.159417e-02
2.025110e-02
2.121576e-02
2.099313e-02
9.864554e-02
8.065072e-02
6.192857e-02
4.103814e-02
2.419275e-02
1.805355e-02
1.551732e-02
1.924846e-02
1.741430e-02
2.342941e-02
6.461175e-02
3.515143e-02
3.793671e-02
5.282411e-02
7.203879e-02
8.985316e-02
2.315102e-02
4.332034e-02
6.414682e-02
8.281152e-02
1.016883e-01
1.177755e-01
2.889609e-02
5.242041e-02
7.356082e-02
9.265558e-02
1.120562e-01
1.346478e-01
1.426873e-01
3.122104e-01
2.930990e-01
3.108023e-01
2.562027e-01
2.735318e-01
2.913025e-01
3.095933e-01
2.360000e-01
2.536270e-01
2.709944e-01
2.886812e-01
1.291421e-01
1.109705e-01
9.307369e-02
7.495209e-02
4.769612e-02
2.872625e-02
3.077176e-01
3.495269e-02
6.396313e-02
9.404940e-02
1.241533e-01
1.572934e-01
1.862666e-01
2.131701e-01
2.377751e-01
2.615864e-01
2.896053e-01
3.069588e-01
1.889675e-01
2.125942e-01
2.329475e-01
2.503552e-01
2.670422e-01
2.840808e-01
3.040171e-01
3.119971e-01
2.492475e-01
2.788388e-01
3.002402e-01
1.349577e-01
1.657111e-01
1.886245e-01
2.132597e-01
3.871717e-02
6.612697e-02
9.976061e-02
3.401743e-02
7.238667e-02
1.051764e-01
1.320473e-01
1.639553e-01
1.884496e-01
2.084176e-01
2.321211e-01
2.571764e-01
2.819790e-01
3.052459e-01
2.612647e-01
2.847389e-01
3.072492e-01
1.328923e-01
1.645036e-01
1.885243e-01
2.156549e-01
3.003824e-02
5.734584e-02
9.589901e-02
3.699966e-02
7.802441e-02
1.918303e-01
2.144749e-01
2.323970e-01
2.508784e-01
2.697525e-01
2.889557e-01
3.068035e-01
3.185257e-01
1.067144e-01
1.254853e-01
1.521040e-01
1.890265e-01
2.197216e-01
2.401746e-01
2.630909e-01
2.860011e-01
3.079966e-01
2.633855e-01
2.863749e-01
3.082038e-01
1.217517e-01
1.512734e-01
1.818498e-01
2.115818e-01
3.702838e-02
6.815893e-02
9.823408e-02
3.113605e-02
6.483482e-02
9.797418e-02
1.271032e-01
1.588583e-01
1.851463e-01
2.137492e-01
2.388679e-01
2.632318e-01
2.864093e-01
3.082455e-01
2.631225e-01
1.592356e-01
2.864174e-01
3.082648e-01
3.453770e-02
7.060774e-02
1.015848e-01
1.288494e-01
1.554149e-01
1.788448e-01
2.079335e-01
2.384916e-01
2.633524e-01
2.865561e-01
3.083289e-01
1.349347e-01
1.612766e-01
1.836336e-01
2.110477e-01
4.154486e-02