VARIABLES = "X" "Y" "Z" "FREF"
ZONE T="instant 117"
STRANDID=0, SOLUTIONTIME=0
Nodes=1235, Elements=2466
ZONETYPE=FETriangle
DATAPACKING=BLOCK
VARLOCATION = ([1-3]=NODAL, [4]=CELLCENTERED)
5.000000e-01
3.380969e-01
3.495858e-01
3.649053e-01
3.825868e-01
3.969052e-01
4.107323e-01
4.279268e-01
4.445492e-01
4.594461e-01
4.718723e-01
4.816209e-01
4.876464e-01
4.923781e-01
4.965538e-01
4.986408e-01
4.997077e-01
3.292000e-01
3.292000e-01
3.292000e-01
3.292000e-01
4.788781e-01
4.761990e-01
4.710906e-01
4.629725e-01
4.525831e-01
4.401066e-01
4.254650e-01
4.096198e-01
3.918562e-01
3.720481e-01
3.560165e-01
3.416475e-01
4.792000e-01
4.928071e-01
4.856339e-01
3.529910e-01
3.472808e-01
3.672220e-01
3.889165e-01
4.103249e-01
4.271646e-01
4.426795e-01
4.562715e-01
4.675381e-01
4.769777e-01
4.843634e-01
4.873851e-01
3.292000e-01
4.996794e-01
4.979234e-01
4.939024e-01
4.872942e-01
4.783853e-01
4.685422e-01
4.566329e-01
4.425878e-01
4.300540e-01
4.176153e-01
4.017032e-01
3.848247e-01
3.693751e-01
3.568650e-01
3.467901e-01
3.371879e-01
5.000000e-01
4.860207e-01
4.930946e-01
4.792000e-01
3.457825e-01
3.646763e-01
3.835530e-01
4.029317e-01
4.225162e-01
4.369689e-01
4.485451e-01
4.592959e-01
4.671899e-01
4.731004e-01
4.771209e-01
4.788853e-01
3.292000e-01
3.292000e-01
3.292000e-01
4.889408e-01
4.857170e-01
4.806107e-01
4.733175e-01
4.638561e-01
4.529102e-01
4.400302e-01
4.210587e-01
4.016182e-01
3.838788e-01
3.662973e-01
3.457756e-01
5.000000e-01
5.000000e-01
5.000000e-01
5.000000e-01
5.000000e-01
5.000000e-01
5.000000e-01
5.000000e-01
5.000000e-01
5.000000e-01
5.000000e-01
5.000000e-01
5.000000e-01
5.000000e-01
5.000000e-01
5.000000e-01
5.000000e-01
5.000000e-01
5.000000e-01
5.000000e-01
5.000000e-01
5.000000e-01
5.000000e-01
5.000000e-01
5.000000e-01
5.000000e-01
5.000000e-01
5.000000e-01
5.000000e-01
5.000000e-01
5.000000e-01
5.000000e-01
5.000000e-01
3.292000e-01
3.292000e-01
3.292000e-01
3.292000e-01
3.292000e-01
3.292000e-01
3.292000e-01
3.292000e-01
3.292000e-01
3.292000e-01
3.292000e-01
3.292000e-01
3.292000e-01
3.292000e-01
3.292000e-01
3.292000e-01
3.292000e-01
3.292000e-01
3.292000e-01
3.292000e-01
3.292000e-01
3.292000e-01
3.292000e-01
3.292000e-01
3.292000e-01
3.292000e-01
3.292000e-01
3.292000e-01
3.292000e-01
3.292000e-01
3.292000e-01
3.292000e-01
3.292000e-01
4.471423e-01
4.382890e-01
4.506864e-01
4.270302e-01
4.413174e-01
4.330638e-01
4.563099e-01
4.598560e-01
4.347809e-01
4.506124e-01
4.426895e-01
4.559853e-01
4.456411e-01
4.579154e-01
3.442554e-01
4.350018e-01
4.480440e-01
4.596979e-01
4.305160e-01
4.384822e-01
4.456155e-01
4.601061e-01
4.759229e-01
4.408955e-01
4.335505e-01
4.472168e-01
4.578870e-01
4.667738e-01
4.811163e-01
4.824614e-01
4.779890e-01
4.836643e-01
4.886179e-01
4.907410e-01
3.519988e-01
3.575738e-01
3.482279e-01
3.407733e-01
3.614906e-01
3.659917e-01
3.737840e-01
3.760412e-01
3.821881e-01
3.877248e-01
3.828110e-01
3.939932e-01
3.933342e-01
3.977128e-01
4.022167e-01
4.047523e-01
4.077798e-01
4.088543e-01
4.124818e-01
4.167922e-01
4.141291e-01
4.188626e-01
4.234722e-01
4.215687e-01
4.272241e-01
4.310323e-01
4.702544e-01
4.695467e-01
3.725212e-01
3.631224e-01
3.538681e-01
3.432826e-01
4.646797e-01
4.594969e-01
4.523686e-01
4.439602e-01
4.614254e-01
4.557113e-01
4.740943e-01
4.728050e-01
4.701392e-01
4.666738e-01
3.623381e-01
3.761421e-01
3.810461e-01
3.938626e-01
3.965245e-01
3.920480e-01
4.146563e-01
4.139883e-01
4.081063e-01
4.033491e-01
4.335332e-01
4.471816e-01
4.305172e-01
4.220618e-01
4.219247e-01
4.137375e-01
4.974411e-01
4.945996e-01
4.944427e-01
4.901416e-01
4.902870e-01
4.851248e-01
4.843267e-01
4.844526e-01
4.777167e-01
3.878651e-01
3.780770e-01
3.684128e-01
3.585015e-01
3.486429e-01
4.790666e-01
4.771936e-01
4.769644e-01
4.608946e-01
4.701076e-01
4.673792e-01
4.686149e-01
4.699897e-01
4.721347e-01
4.229655e-01
4.396060e-01
4.532480e-01
4.653240e-01
4.599551e-01
4.345452e-01
4.489127e-01
3.399918e-01
3.418668e-01
3.515771e-01
3.407433e-01
3.432575e-01
3.552737e-01
3.642911e-01
3.518362e-01
3.594351e-01
3.695562e-01
3.784936e-01
3.421680e-01
3.534229e-01
3.641844e-01
3.739344e-01
3.844869e-01
3.942171e-01
3.399456e-01
3.462710e-01
3.561370e-01
3.667704e-01
3.775268e-01
3.883415e-01
4.001671e-01
4.111716e-01
4.234947e-01
3.420170e-01
3.523544e-01
3.611378e-01
3.698788e-01
3.803004e-01
3.912599e-01
4.022944e-01
4.167112e-01
4.266491e-01
4.334940e-01
4.029203e-01
3.931338e-01
3.834144e-01
3.737730e-01
3.636399e-01
3.521934e-01
3.434446e-01
4.990149e-01
4.996234e-01
4.964423e-01
4.981837e-01
4.994679e-01
4.920890e-01
4.951859e-01
4.975971e-01
4.993256e-01
4.813552e-01
4.864122e-01
4.905311e-01
4.940497e-01
4.969989e-01
4.991380e-01
4.635933e-01
4.730456e-01
4.794826e-01
4.842303e-01
4.886377e-01
4.926933e-01
4.961829e-01
4.988301e-01
4.806543e-01
4.875613e-01
4.946577e-01
4.980667e-01
4.536551e-01
4.989791e-01
4.647378e-01
4.723620e-01
4.762841e-01
4.811826e-01
4.862247e-01
4.908327e-01
4.948027e-01
4.980978e-01
3.405424e-01
3.516723e-01
3.642563e-01
3.775506e-01
3.915677e-01
4.059481e-01
4.203077e-01
4.341827e-01
4.472916e-01
4.598001e-01
4.723426e-01
4.817046e-01
4.892297e-01
4.950029e-01
4.986332e-01
3.411253e-01
4.187020e-01
4.079764e-01
3.982399e-01
3.894629e-01
3.797239e-01
3.692769e-01
3.592620e-01
3.494619e-01
3.534651e-01
3.665539e-01
3.802763e-01
3.945092e-01
4.089429e-01
4.232460e-01
4.370929e-01
4.502745e-01
4.626273e-01
4.736654e-01
4.828089e-01
4.901097e-01
4.955016e-01
4.988497e-01
3.418781e-01
3.548457e-01
3.683617e-01
3.824021e-01
3.968313e-01
4.113538e-01
4.256649e-01
4.394634e-01
4.524778e-01
4.644039e-01
4.748949e-01
4.837057e-01
4.907179e-01
4.958320e-01
4.989527e-01
3.424577e-01
3.558948e-01
3.697636e-01
3.840649e-01
3.986601e-01
4.132619e-01
4.275674e-01
4.412700e-01
4.540741e-01
4.656886e-01
4.758546e-01
4.843848e-01
4.911479e-01
4.960471e-01
4.990110e-01
3.428985e-01
3.566956e-01
3.708442e-01
3.853537e-01
4.000801e-01
4.147373e-01
4.290210e-01
4.426219e-01
4.552504e-01
4.666411e-01
4.765750e-01
4.848863e-01
4.914540e-01
4.961928e-01
4.990489e-01
3.432346e-01
3.573084e-01
3.716741e-01
3.863451e-01
4.011704e-01
4.158650e-01
4.301219e-01
4.436366e-01
4.561290e-01
4.673545e-01
4.771141e-01
4.852579e-01
4.533379e-01
4.621757e-01
4.694317e-01
4.752802e-01
4.810345e-01
4.863288e-01
4.908635e-01
4.946331e-01
4.974600e-01
4.991451e-01
4.998109e-01
4.916765e-01
4.962966e-01
4.990754e-01
3.434962e-01
3.577837e-01
3.723168e-01
3.871113e-01
4.020130e-01
4.167344e-01
4.309690e-01
4.444153e-01
4.568042e-01
4.679033e-01
4.775290e-01
4.855427e-01
4.918464e-01
4.963756e-01
4.990958e-01
3.437109e-01
3.581650e-01
3.728273e-01
3.877224e-01
4.026882e-01
4.174354e-01
4.316544e-01
4.450490e-01
4.573556e-01
4.683542e-01
4.778708e-01
4.857783e-01
4.919874e-01
4.364058e-01
4.224293e-01
4.116572e-01
4.054754e-01
3.964007e-01
3.860872e-01
3.754542e-01
3.653856e-01
3.548761e-01
3.446191e-01
4.964422e-01
4.991139e-01
3.438939e-01
3.584738e-01
3.732542e-01
3.882457e-01
4.032778e-01
4.180545e-01
4.322668e-01
4.456192e-01
4.578567e-01
4.687665e-01
4.781861e-01
4.859966e-01
4.921189e-01
4.965042e-01
4.991304e-01
3.439725e-01
3.587305e-01
3.736571e-01
3.887574e-01
4.038639e-01
4.186793e-01
4.328900e-01
4.462051e-01
4.583748e-01
4.691971e-01
4.785173e-01
4.862278e-01
4.922581e-01
4.965692e-01
4.991468e-01
3.441871e-01
3.590844e-01
3.741268e-01
3.893385e-01
4.045341e-01
4.193967e-01
4.336082e-01
4.468808e-01
4.589755e-01
4.696984e-01
4.789061e-01
4.865005e-01
4.924232e-01
4.966462e-01
4.991662e-01
3.444554e-01
3.594697e-01
3.746808e-01
3.900633e-01
4.053806e-01
4.202983e-01
4.345022e-01
4.477185e-01
4.597192e-01
4.703217e-01
4.793914e-01
4.868432e-01
4.926324e-01
4.967455e-01
4.991919e-01
3.444619e-01
3.598575e-01
3.754256e-01
3.910594e-01
4.065177e-01
4.214758e-01
4.356476e-01
4.487823e-01
4.606634e-01
4.711141e-01
4.800103e-01
4.728448e-01
4.784038e-01
4.834056e-01
4.879676e-01
4.918904e-01
4.950272e-01
4.976489e-01
4.993570e-01
4.872820e-01
4.929035e-01
4.968775e-01
4.992277e-01
3.449138e-01
3.607314e-01
3.766465e-01
3.925153e-01
4.080614e-01
4.230007e-01
4.371023e-01
4.501300e-01
4.618601e-01
4.721187e-01
4.807940e-01
4.878399e-01
4.932520e-01
4.970513e-01
4.992756e-01
3.458314e-01
3.622547e-01
3.785454e-01
3.945694e-01
4.100545e-01
4.248847e-01
4.389063e-01
4.518198e-01
4.633611e-01
4.733682e-01
4.817611e-01
4.885365e-01
4.936958e-01
4.665285e-01
4.972757e-01
4.993336e-01
3.470895e-01
3.647737e-01
3.814317e-01
3.972511e-01
4.123182e-01
4.270711e-01
4.411236e-01
4.539458e-01
4.652208e-01
4.748628e-01
4.828906e-01
4.894104e-01
4.942819e-01
4.975517e-01
4.993801e-01
3.487818e-01
3.629615e-01
3.819354e-01
4.011423e-01
3.494952e-01
3.702761e-01
3.858524e-01
3.994615e-01
4.144374e-01
4.295917e-01
4.439422e-01
4.567108e-01
4.674959e-01
4.764579e-01
4.840070e-01
4.906814e-01
4.952373e-01
4.976680e-01
4.993457e-01
4.995333e-01
4.992906e-01
4.979572e-01
4.995484e-01
4.768926e-01
4.815116e-01
4.858719e-01
4.898243e-01
4.932377e-01
4.959312e-01
4.976764e-01
4.994287e-01
4.987282e-01
4.970919e-01
4.950076e-01
4.992944e-01
4.978713e-01
4.959550e-01
4.934546e-01
4.905684e-01
4.987442e-01
4.970155e-01
4.946327e-01
4.916990e-01
4.883086e-01
4.847318e-01
3.292000e-01
3.292000e-01
3.292000e-01
3.292000e-01
3.292000e-01
3.292000e-01
3.292000e-01
3.292000e-01
3.292000e-01
3.292000e-01
3.292000e-01
3.292000e-01
3.292000e-01
3.292000e-01
3.292000e-01
3.292000e-01
3.292000e-01
3.292000e-01
3.292000e-01
3.292000e-01
3.292000e-01
3.292000e-01
3.292000e-01
3.292000e-01
3.292000e-01
3.292000e-01
3.292000e-01
3.292000e-01
3.292000e-01
3.292000e-01
3.292000e-01
3.292000e-01
3.292000e-01
3.292000e-01
3.292000e-01
3.292000e-01
3.292000e-01
3.292000e-01
3.292000e-01
3.292000e-01
3.292000e-01
3.292000e-01
3.292000e-01
3.292000e-01
3.292000e-01
3.292000e-01
3.292000e-01
3.292000e-01
3.292000e-01
3.292000e-01
3.292000e-01
3.292000e-01
3.292000e-01
3.292000e-01
3.292000e-01
3.292000e-01
3.292000e-01
3.292000e-01
3.292000e-01
3.292000e-01
3.292000e-01
3.292000e-01
3.292000e-01
3.292000e-01
3.292000e-01
3.292000e-01
3.292000e-01
3.292000e-01
3.292000e-01
3.292000e-01
3.292000e-01
3.292000e-01
3.292000e-01
3.292000e-01
3.292000e-01
3.292000e-01
3.292000e-01
3.292000e-01
3.292000e-01
3.292000e-01
3.292000e-01
3.292000e-01
3.292000e-01
3.292000e-01
3.292000e-01
3.292000e-01
3.292000e-01
3.292000e-01
3.292000e-01
3.292000e-01
3.292000e-01
3.292000e-01
3.292000e-01
4.792000e-01
4.792000e-01
4.792000e-01
4.792000e-01
4.792000e-01
4.792000e-01
4.792000e-01
4.792000e-01
4.792000e-01
4.792000e-01
4.792000e-01
4.792000e-01
4.792000e-01
4.792000e-01
4.792000e-01
4.792000e-01
4.792000e-01
4.792000e-01
4.792000e-01
4.792000e-01
4.792000e-01
4.792000e-01
4.792000e-01
4.792000e-01
4.792000e-01
4.792000e-01
4.792000e-01
4.792000e-01
4.792000e-01
4.792000e-01
4.792000e-01
4.792000e-01
4.792000e-01
4.485153e-01
4.224313e-01
4.247305e-01
4.424193e-01
4.362477e-01
4.489726e-01
4.757068e-01
3.894223e-01
4.582598e-01
4.719307e-01
4.712539e-01
4.659916e-01
4.681613e-01
4.614144e-01
4.563775e-01
4.626981e-01
4.575924e-01
4.508875e-01
4.489011e-01
4.450710e-01
4.478455e-01
4.382833e-01
4.777418e-01
4.785890e-01
4.349681e-01
4.369863e-01
4.370224e-01
4.342593e-01
4.126744e-01
4.259835e-01
4.166666e-01
4.042619e-01
4.082608e-01
4.012252e-01
3.841804e-01
4.413087e-01
4.304602e-01
4.170401e-01
4.076694e-01
4.057045e-01
4.059979e-01
4.021813e-01
4.512459e-01
4.386637e-01
4.265370e-01
4.388221e-01
4.271848e-01
4.124348e-01
3.999951e-01
4.740134e-01
4.763372e-01
4.782311e-01
3.978328e-01
3.659374e-01
3.816341e-01
3.828944e-01
4.111527e-01
4.011613e-01
3.984064e-01
4.239434e-01
4.208044e-01
4.159036e-01
4.114031e-01
4.369328e-01
4.327946e-01
4.273862e-01
4.222205e-01
4.770412e-01
4.739731e-01
4.642390e-01
4.647251e-01
4.499415e-01
4.491752e-01
4.556159e-01
4.598231e-01
4.306346e-01
4.421982e-01
4.540195e-01
4.787119e-01
4.787240e-01
4.787629e-01
4.787370e-01
4.786869e-01
4.787371e-01
4.786890e-01
4.786495e-01
4.676690e-01
4.714735e-01
4.746724e-01
4.772548e-01
4.785545e-01
4.788394e-01
4.789508e-01
4.788189e-01
4.788836e-01
4.786195e-01
4.750232e-01
4.780077e-01
4.777693e-01
4.762765e-01
4.737983e-01
4.705643e-01
4.786161e-01
4.772754e-01
4.748528e-01
4.718376e-01
4.679061e-01
4.638097e-01
4.783468e-01
4.763165e-01
4.734814e-01
4.698806e-01
4.653219e-01
4.587612e-01
4.559517e-01
3.476687e-01
3.656541e-01
3.482790e-01
3.950373e-01
3.816176e-01
3.662422e-01
3.488963e-01
4.095186e-01
3.969435e-01
3.832120e-01
3.680378e-01
4.586887e-01
4.639670e-01
4.685305e-01
4.724461e-01
4.765672e-01
4.782948e-01
3.505530e-01
4.779124e-01
4.749839e-01
4.697687e-01
4.621046e-01
4.507380e-01
4.380701e-01
4.236651e-01
4.085078e-01
3.916951e-01
3.689582e-01
3.530183e-01
4.368577e-01
4.241965e-01
4.115404e-01
3.991360e-01
3.861235e-01
3.719050e-01
3.546361e-01
3.475319e-01
4.005306e-01
3.783616e-01
3.594719e-01
4.582806e-01
4.463492e-01
4.358454e-01
4.226489e-01
4.776371e-01
4.745983e-01
4.683963e-01
4.779523e-01
4.737009e-01
4.671598e-01
4.594474e-01
4.475237e-01
4.362679e-01
4.255986e-01
4.115819e-01
3.946362e-01
3.755272e-01
3.543237e-01
3.912194e-01
3.726274e-01
3.519347e-01
4.586915e-01
4.467122e-01
4.354424e-01
4.208954e-01
4.782423e-01
4.756795e-01
4.690847e-01
4.777472e-01
4.727042e-01
4.320137e-01
4.186317e-01
4.071692e-01
3.948173e-01
3.810757e-01
3.658178e-01
3.508185e-01
3.394366e-01
4.666293e-01
4.611800e-01
4.519706e-01
4.353658e-01
4.186347e-01
4.055946e-01
3.893813e-01
3.709814e-01
3.508314e-01
3.887581e-01
3.702110e-01
3.503152e-01
4.619479e-01
4.517119e-01
4.380307e-01
4.226278e-01
4.777077e-01
4.741449e-01
4.684163e-01
4.781328e-01
4.747007e-01
4.686081e-01
4.605473e-01
4.489886e-01
4.369101e-01
4.217227e-01
4.059361e-01
3.884843e-01
3.697775e-01
3.500152e-01
3.880598e-01
4.472514e-01
3.693101e-01
3.497218e-01
4.778204e-01
4.735577e-01
4.672696e-01
4.592410e-01
4.494037e-01
4.387359e-01
4.239425e-01
4.049400e-01
3.871429e-01
3.686162e-01
3.493247e-01
4.559956e-01
4.454675e-01
4.347565e-01
4.201261e-01
4.771103e-01
4.730840e-01
4.659180e-01
4.774835e-01
4.721483e-01
4.157131e-01
4.034642e-01
3.904618e-01
3.780140e-01
3.639212e-01
3.478536e-01
4.648868e-01
4.573886e-01
4.472199e-01
4.331995e-01
4.176444e-01
4.030537e-01
3.858987e-01
3.676628e-01
3.487610e-01
3.844812e-01
3.663148e-01
3.478844e-01
4.771916e-01
4.732566e-01
4.645603e-01
4.769765e-01
4.699937e-01
4.626684e-01
4.539720e-01
4.428121e-01
4.302117e-01
4.160033e-01
3.999055e-01
3.821413e-01
3.640174e-01
3.463533e-01
4.773086e-01
4.732063e-01
4.661176e-01
4.578340e-01
4.459481e-01
4.323024e-01
4.147837e-01
3.977375e-01
3.780329e-01
3.594686e-01
3.447905e-01
4.769225e-01
4.737634e-01
4.666851e-01
4.585986e-01
4.469561e-01
4.331645e-01
4.173099e-01
3.953270e-01
3.789973e-01
3.629650e-01
3.481309e-01
4.772087e-01
4.750147e-01
4.702845e-01
4.605345e-01
4.487564e-01
4.014289e-01
3.854238e-01
3.721345e-01
3.621899e-01
3.467879e-01
4.341010e-01
4.196564e-01
4.049448e-01
3.886979e-01
3.693232e-01
3.506262e-01
3.933614e-01
3.756689e-01
3.531288e-01
4.778582e-01
4.742448e-01
4.680057e-01
4.583306e-01
4.466016e-01
4.344490e-01
4.215068e-01
4.066537e-01
3.896946e-01
3.709069e-01
3.502728e-01
4.570174e-01
4.450071e-01
4.297009e-01
4.153828e-01
4.773157e-01
4.727817e-01
4.653655e-01
4.776953e-01
4.734753e-01
4.663639e-01
4.551053e-01
4.405928e-01
4.290836e-01
4.175506e-01
4.028807e-01
3.862975e-01
3.682678e-01
3.644341e-01
3.500387e-01
3.491477e-01
3.839392e-01
3.665889e-01
3.483123e-01
4.557502e-01
4.416527e-01
4.267957e-01
4.132352e-01
4.772345e-01
4.734150e-01
4.658599e-01
4.776043e-01
4.718087e-01
4.634182e-01
4.538472e-01
4.428254e-01
4.285036e-01
4.113885e-01
3.981961e-01
3.823675e-01
3.652401e-01
3.475023e-01
3.808743e-01
3.638705e-01
3.470743e-01
4.778972e-01
4.747530e-01
4.669921e-01
3.460217e-01
4.774261e-01
4.711383e-01
4.640745e-01
4.573508e-01
4.463481e-01
4.328035e-01
4.150641e-01
3.954260e-01
3.774915e-01
3.637747e-01
3.478907e-01
4.891353e-01
4.892251e-01
4.895792e-01
4.895765e-01
4.896776e-01
4.895972e-01
4.896169e-01
4.896378e-01
4.895636e-01
4.896378e-01
4.895741e-01
4.896415e-01
4.895659e-01
4.896229e-01
4.896058e-01
4.895517e-01
4.896078e-01
4.895674e-01
4.896313e-01
4.896329e-01
4.896139e-01
4.896039e-01
4.896049e-01
4.895095e-01
4.896455e-01
4.896504e-01
4.895620e-01
4.895664e-01
4.895551e-01
4.896761e-01
4.896098e-01
4.896046e-01
-4.625929e-18
3.683619e-01
3.574770e-01
3.418247e-01
3.219120e-01
3.040827e-01
2.851298e-01
2.586090e-01
2.288580e-01
1.972544e-01
1.653378e-01
1.343180e-01
1.104583e-01
8.697000e-02
5.860307e-02
3.684261e-02
1.709470e-02
3.763341e-01
3.560851e-01
3.648608e-01
3.482241e-01
1.756203e-02
5.354556e-02
8.778552e-02
1.236490e-01
1.574838e-01
1.895754e-01
2.204817e-01
2.486851e-01
2.758285e-01
3.020147e-01
3.207568e-01
3.360203e-01
0.000000e+00
0.000000e+00
0.000000e+00
3.327309e-01
3.474752e-01
3.262476e-01
2.963393e-01
2.670955e-01
2.390920e-01
2.089324e-01
1.772653e-01
1.452029e-01
1.079365e-01
7.162585e-02
3.617111e-02
3.763341e-01
1.790381e-02
4.552233e-02
7.784893e-02
1.120015e-01
1.454218e-01
1.745515e-01
2.036821e-01
2.326286e-01
2.550560e-01
2.749500e-01
2.977155e-01
3.192334e-01
3.369896e-01
3.502105e-01
3.601897e-01
3.691942e-01
-4.625929e-18
0.000000e+00
0.000000e+00
0.000000e+00
3.317637e-01
3.108759e-01
2.872625e-01
2.593814e-01
2.260811e-01
1.966997e-01
1.686415e-01
1.366746e-01
1.066126e-01
7.621445e-02
4.459000e-02
1.736364e-02
3.482241e-01
3.649220e-01
3.559518e-01
2.534305e-02
6.108348e-02
9.313037e-02
1.250506e-01
1.561960e-01
1.857892e-01
2.147004e-01
2.486513e-01
2.798417e-01
3.036375e-01
3.246101e-01
3.465736e-01
-1.387779e-17
-1.387779e-17
-1.387779e-17
-1.387779e-17
-1.387779e-17
-1.387779e-17
-1.387779e-17
-1.387779e-17
-1.387779e-17
-1.387779e-17
-1.387779e-17
-1.387779e-17
-1.387779e-17
-1.387779e-17
-1.387779e-17
-1.387779e-17
-1.387779e-17
-1.387779e-17
-1.387779e-17
-1.387779e-17
-1.387779e-17
-1.387779e-17
-1.387779e-17
-1.387779e-17
-1.387779e-17
-1.387779e-17
-1.387779e-17
-1.387779e-17
-1.387779e-17
-1.387779e-17
-1.387779e-17
-1.387779e-17
-1.387779e-17
3.763341e-01
3.763341e-01
3.763341e-01
3.763341e-01
3.763341e-01
3.763341e-01
3.763341e-01
3.763341e-01
3.763341e-01
3.763341e-01
3.763341e-01
3.763341e-01
3.763341e-01
3.763341e-01
3.763341e-01
3.763341e-01
3.763341e-01
3.763341e-01
3.763341e-01
3.763341e-01
3.763341e-01
3.763341e-01
3.763341e-01
3.763341e-01
3.763341e-01
3.763341e-01
3.763341e-01
3.763341e-01
3.763341e-01
3.763341e-01
3.763341e-01
3.763341e-01
3.763341e-01
2.237494e-01
2.406299e-01
2.165221e-01
2.600870e-01
2.350298e-01
2.499115e-01
2.044046e-01
1.962968e-01
2.469120e-01
2.166759e-01
2.324349e-01
2.051277e-01
2.267245e-01
2.007822e-01
3.626130e-01
2.465227e-01
2.219382e-01
1.966669e-01
2.542754e-01
2.402777e-01
2.267747e-01
1.957100e-01
1.532886e-01
2.358201e-01
2.490662e-01
2.236004e-01
2.008468e-01
1.792267e-01
1.361145e-01
1.312670e-01
1.467191e-01
1.267630e-01
1.060783e-01
9.577737e-02
3.551012e-01
3.494868e-01
3.587998e-01
3.658874e-01
3.454339e-01
3.406612e-01
3.320927e-01
3.295346e-01
3.223853e-01
3.157048e-01
3.216453e-01
3.078463e-01
3.086879e-01
3.030257e-01
2.970214e-01
2.935568e-01
2.893365e-01
2.878161e-01
2.825929e-01
2.761960e-01
2.801734e-01
2.730460e-01
2.658408e-01
2.688491e-01
2.597684e-01
2.533992e-01
1.698846e-01
1.718309e-01
3.335085e-01
3.437181e-01
3.532384e-01
3.635341e-01
1.845881e-01
1.971360e-01
2.129852e-01
2.299986e-01
1.925788e-01
2.057358e-01
1.588540e-01
1.626514e-01
1.702033e-01
1.794869e-01
3.445447e-01
3.294194e-01
3.237342e-01
3.080134e-01
3.045789e-01
3.103198e-01
2.793925e-01
2.803813e-01
2.888758e-01
2.954818e-01
2.490963e-01
2.236708e-01
2.542734e-01
2.680742e-01
2.682900e-01
2.807513e-01
5.052072e-02
7.328878e-02
7.433968e-02
9.879894e-02
9.807483e-02
1.210533e-01
1.242080e-01
1.237160e-01
1.476035e-01
3.155324e-01
3.271968e-01
3.380415e-01
3.485351e-01
3.583966e-01
1.431613e-01
1.492858e-01
1.500164e-01
1.938458e-01
1.702906e-01
1.776420e-01
1.743561e-01
1.706157e-01
1.645869e-01
2.666462e-01
2.382153e-01
2.111072e-01
1.829578e-01
1.960645e-01
2.473267e-01
2.201758e-01
3.666136e-01
3.648659e-01
3.555187e-01
3.659153e-01
3.635578e-01
3.518246e-01
3.424792e-01
3.552623e-01
3.475722e-01
3.367910e-01
3.267148e-01
3.645834e-01
3.536839e-01
3.425926e-01
3.319233e-01
3.196401e-01
3.075596e-01
3.666565e-01
3.606888e-01
3.509508e-01
3.398228e-01
3.278315e-01
3.149459e-01
2.997770e-01
2.844959e-01
2.658048e-01
3.647251e-01
3.547484e-01
3.458027e-01
3.364368e-01
3.246100e-01
3.113128e-01
2.969162e-01
2.763183e-01
2.607116e-01
2.491645e-01
2.960662e-01
3.089431e-01
3.209259e-01
3.321051e-01
3.431705e-01
3.549082e-01
3.633811e-01
3.137058e-02
1.940214e-02
5.953988e-02
4.257898e-02
2.306086e-02
8.859108e-02
6.921674e-02
4.896040e-02
2.596079e-02
1.352672e-01
1.157721e-01
9.684656e-02
7.690835e-02
5.470008e-02
2.934635e-02
1.872999e-01
1.619503e-01
1.417618e-01
1.245833e-01
1.059867e-01
8.516636e-02
6.166456e-02
3.418435e-02
1.377370e-01
1.108330e-01
7.289561e-02
4.392625e-02
2.102309e-01
3.193475e-02
1.844418e-01
1.639335e-01
1.521624e-01
1.358799e-01
1.165570e-01
9.530631e-02
7.190476e-02
4.357312e-02
3.661023e-01
3.554245e-01
3.425162e-01
3.278041e-01
3.109256e-01
2.919009e-01
2.708162e-01
2.479625e-01
2.234508e-01
1.964278e-01
1.639893e-01
1.340174e-01
1.032198e-01
7.051355e-02
3.694532e-02
3.655592e-01
2.732923e-01
2.890592e-01
3.023325e-01
3.135581e-01
3.252841e-01
3.370973e-01
3.477511e-01
3.575981e-01
3.536416e-01
3.400562e-01
3.246382e-01
3.071847e-01
2.876903e-01
2.662008e-01
2.427958e-01
2.173773e-01
1.896734e-01
1.601284e-01
1.299831e-01
9.895708e-02
6.691930e-02
3.389726e-02
3.648553e-01
3.522563e-01
3.380972e-01
3.221314e-01
3.041791e-01
2.842325e-01
2.623154e-01
2.384784e-01
2.127530e-01
1.852809e-01
1.564443e-01
1.266050e-01
9.589570e-02
6.442570e-02
3.234572e-02
3.643113e-01
3.511964e-01
3.365634e-01
3.201471e-01
3.017783e-01
2.814509e-01
2.592028e-01
2.351186e-01
2.093244e-01
1.820279e-01
1.535006e-01
1.239813e-01
9.366806e-02
6.274755e-02
3.143293e-02
3.638964e-01
3.503830e-01
3.353723e-01
3.185946e-01
2.998932e-01
2.792722e-01
2.567897e-01
2.325637e-01
2.067536e-01
1.795719e-01
1.512489e-01
1.220053e-01
9.204845e-02
6.158462e-02
3.082599e-02
3.635794e-01
3.497580e-01
3.344523e-01
3.173917e-01
2.984331e-01
2.775902e-01
2.549415e-01
2.306221e-01
2.048080e-01
1.777070e-01
1.495398e-01
1.205188e-01
2.109141e-01
1.907712e-01
1.721450e-01
1.552699e-01
1.364032e-01
1.161217e-01
9.514740e-02
7.306248e-02
5.033436e-02
2.922537e-02
1.375122e-02
9.085250e-02
6.074294e-02
3.039369e-02
3.633323e-01
3.492718e-01
3.337368e-01
3.164567e-01
2.972971e-01
2.762833e-01
2.535068e-01
2.291179e-01
2.032975e-01
1.762569e-01
1.482093e-01
1.193662e-01
8.992835e-02
6.009375e-02
3.005599e-02
3.631292e-01
3.488808e-01
3.331663e-01
3.157076e-01
2.963818e-01
2.752229e-01
2.523380e-01
2.278847e-01
2.020541e-01
1.750553e-01
1.471037e-01
1.184038e-01
8.915370e-02
2.440286e-01
2.674948e-01
2.837929e-01
2.925572e-01
3.047400e-01
3.177053e-01
3.302031e-01
3.413112e-01
3.522257e-01
3.622674e-01
5.954088e-02
2.975417e-02
3.629559e-01
3.485635e-01
3.326880e-01
3.150639e-01
2.955791e-01
2.742817e-01
2.512875e-01
2.267676e-01
2.009160e-01
1.739481e-01
1.460756e-01
1.175045e-01
8.842519e-02
5.902198e-02
2.947686e-02
3.628814e-01
3.482994e-01
3.322354e-01
3.144323e-01
2.947778e-01
2.733270e-01
2.502124e-01
2.256125e-01
1.997311e-01
1.727834e-01
1.449868e-01
1.165440e-01
8.764691e-02
5.847278e-02
2.919650e-02
3.626779e-01
3.479344e-01
3.317064e-01
3.137126e-01
2.938573e-01
2.722248e-01
2.489657e-01
2.242711e-01
1.983469e-01
1.714160e-01
1.436974e-01
1.154005e-01
8.671451e-02
5.781512e-02
2.886428e-02
3.624231e-01
3.475364e-01
3.310805e-01
3.128108e-01
2.926885e-01
2.708308e-01
2.474021e-01
2.225942e-01
1.966169e-01
1.696982e-01
1.420699e-01
1.139461e-01
8.551770e-02
5.695497e-02
2.841547e-02
3.624168e-01
3.471348e-01
3.302357e-01
3.115647e-01
2.911071e-01
2.689947e-01
2.453797e-01
2.204414e-01
1.943944e-01
1.674857e-01
1.399646e-01
1.625355e-01
1.453608e-01
1.277459e-01
1.090303e-01
8.968769e-02
7.034283e-02
4.843072e-02
2.534984e-02
1.120546e-01
8.394107e-02
5.579183e-02
2.777970e-02
3.619869e-01
3.462266e-01
3.288426e-01
3.097285e-01
2.889392e-01
2.665903e-01
2.427789e-01
2.176763e-01
1.915338e-01
1.646328e-01
1.372485e-01
1.096006e-01
8.186831e-02
5.422149e-02
2.690572e-02
3.611103e-01
3.446325e-01
3.266548e-01
3.071075e-01
2.861037e-01
2.635774e-01
2.395021e-01
2.141468e-01
1.878735e-01
1.610047e-01
1.338142e-01
1.064523e-01
7.914853e-02
1.798643e-01
5.212357e-02
2.580665e-02
3.599012e-01
3.419651e-01
3.232799e-01
3.036307e-01
2.828315e-01
2.600198e-01
2.353933e-01
2.096025e-01
1.832200e-01
1.565419e-01
1.296790e-01
1.023593e-01
7.540184e-02
4.941965e-02
2.488926e-02
3.582614e-01
3.438879e-01
3.226846e-01
2.984709e-01
3.575656e-01
3.359994e-01
3.179904e-01
3.007166e-01
2.797171e-01
2.558338e-01
2.300334e-01
2.035073e-01
1.773346e-01
1.516176e-01
1.254482e-01
9.608201e-02
6.884810e-02
4.823480e-02
2.557106e-02
2.159868e-02
2.662554e-02
4.515158e-02
2.124654e-02
1.502446e-01
1.347092e-01
1.180192e-01
1.003600e-01
8.195499e-02
6.365714e-02
4.814739e-02
2.389519e-02
3.563941e-02
5.384846e-02
7.048024e-02
2.655374e-02
4.608923e-02
6.347130e-02
8.063835e-02
9.665712e-02
3.541450e-02
5.454878e-02
7.306492e-02
9.073098e-02
1.074929e-01
1.226174e-01
3.482241e-01
3.482241e-01
3.482241e-01
3.482241e-01
3.482241e-01
3.482241e-01
3.482241e-01
3.482241e-01
3.482241e-01
3.482241e-01
3.482241e-01
3.482241e-01
3.482241e-01
3.482241e-01
3.482241e-01
3.482241e-01
3.482241e-01
3.482241e-01
3.482241e-01
3.482241e-01
3.482241e-01
3.482241e-01
3.482241e-01
3.482241e-01
3.482241e-01
3.482241e-01
3.482241e-01
3.482241e-01
3.482241e-01
3.482241e-01
3.482241e-01
3.482241e-01
3.482241e-01
3.576758e-01
3.666974e-01
3.624929e-01
3.576598e-01
3.668591e-01
3.576936e-01
3.668742e-01
3.576937e-01
3.668774e-01
3.576015e-01
3.668459e-01
3.623083e-01
3.612993e-01
3.577682e-01
3.668814e-01
3.577365e-01
3.668407e-01
3.576754e-01
3.667437e-01
3.652891e-01
3.576882e-01
3.665632e-01
3.577650e-01
3.669293e-01
3.573803e-01
3.664246e-01
3.576087e-01
3.675363e-01
3.576043e-01
3.667416e-01
3.577427e-01
3.668715e-01
3.576405e-01
3.667669e-01
3.576914e-01
3.668731e-01
3.576942e-01
3.668754e-01
3.576917e-01
3.668822e-01
3.576841e-01
3.668830e-01
3.577963e-01
3.679278e-01
3.573287e-01
3.665378e-01
3.578904e-01
3.678358e-01
3.574210e-01
3.671186e-01
3.572356e-01
3.667568e-01
3.669187e-01
3.577862e-01
3.581529e-01
3.672337e-01
3.577719e-01
3.668436e-01
3.577526e-01
3.668521e-01
-3.469447e-18
-3.469447e-18
-3.469447e-18
-3.469447e-18
-3.469447e-18
-3.469447e-18
-3.469447e-18
-3.469447e-18
-3.469447e-18
-3.469447e-18
-3.469447e-18
-3.469447e-18
-3.469447e-18
-3.469447e-18
-3.469447e-18
-3.469447e-18
-3.469447e-18
-3.469447e-18
-3.469447e-18
-3.469447e-18
-3.469447e-18
-3.469447e-18
-3.469447e-18
-3.469447e-18
-3.469447e-18
-3.469447e-18
-3.469447e-18
-3.469447e-18
-3.469447e-18
-3.469447e-18
-3.469447e-18
-3.469447e-18
-3.469447e-18
1.687207e-01
2.262398e-01
2.218933e-01
1.841136e-01
1.982941e-01
1.675000e-01
5.775562e-02
2.792542e-01
1.401093e-01
8.315060e-02
8.690445e-02
1.117340e-01
1.022627e-01
1.293420e-01
1.461240e-01
1.246720e-01
1.422738e-01
1.622747e-01
1.676915e-01
1.776076e-01
1.704907e-01
1.937534e-01
3.735468e-02
2.419076e-02
2.010856e-01
1.966611e-01
1.965810e-01
2.026118e-01
2.435826e-01
2.194782e-01
2.366889e-01
2.573032e-01
2.509099e-01
2.620133e-01
2.864228e-01
1.867598e-01
2.105627e-01
2.360301e-01
2.518696e-01
2.550225e-01
2.545553e-01
2.605434e-01
1.612756e-01
1.928907e-01
2.184006e-01
1.925301e-01
2.171308e-01
2.439880e-01
2.638874e-01
7.031344e-02
5.230217e-02
3.045739e-02
2.671362e-01
3.093905e-01
2.898069e-01
2.881397e-01
2.461424e-01
2.621111e-01
2.662800e-01
2.233934e-01
2.292516e-01
2.380270e-01
2.457237e-01
1.967801e-01
2.057218e-01
2.167341e-01
2.266330e-01
4.543447e-02
7.058452e-02
1.188058e-01
1.168896e-01
1.648796e-01
1.669559e-01
1.484816e-01
1.348901e-01
2.102059e-01
1.846439e-01
1.532936e-01
2.162235e-02
2.135401e-02
2.046384e-02
2.105901e-02
2.216896e-02
2.105790e-02
2.212450e-02
2.296360e-02
1.044908e-01
8.570536e-02
6.571741e-02
4.313380e-02
2.486369e-02
1.858767e-02
1.545207e-02
1.910816e-02
1.741083e-02
2.357999e-02
6.313179e-02
3.378225e-02
3.700198e-02
5.285198e-02
7.174833e-02
9.056437e-02
2.364815e-02
4.290541e-02
6.440068e-02
8.367753e-02
1.034242e-01
1.204706e-01
2.858218e-02
5.249004e-02
7.381031e-02
9.404721e-02
1.144911e-01
1.384587e-01
1.474474e-01
3.297865e-01
3.097252e-01
3.291418e-01
2.712529e-01
2.898286e-01
3.090296e-01
3.284875e-01
2.488516e-01
2.684557e-01
2.877172e-01
3.068889e-01
1.386987e-01
1.198637e-01
1.005576e-01
8.017036e-02
5.016313e-02
2.944019e-02
3.267189e-01
3.510526e-02
6.342699e-02
9.460449e-02
1.268541e-01
1.626897e-01
1.942351e-01
2.239207e-01
2.505076e-01
2.760573e-01
3.057817e-01
3.240536e-01
1.969466e-01
2.229125e-01
2.454936e-01
2.651850e-01
2.837980e-01
3.021908e-01
3.222823e-01
3.299306e-01
2.630739e-01
2.940666e-01
3.168795e-01
1.400412e-01
1.743703e-01
1.991769e-01
2.258331e-01
3.867053e-02
6.625027e-02
1.011809e-01
3.455753e-02
7.238880e-02
1.067443e-01
1.361642e-01
1.713334e-01
1.982498e-01
2.202237e-01
2.454240e-01
2.718362e-01
2.976776e-01
3.226257e-01
2.767310e-01
3.012996e-01
3.252301e-01
1.386894e-01
1.734383e-01
2.000563e-01
2.290845e-01
3.028049e-02
5.797951e-02
9.793994e-02
3.728637e-02
7.863432e-02
2.073568e-01
2.331955e-01
2.526774e-01
2.715731e-01
2.905407e-01
3.095318e-01
3.264338e-01
3.382535e-01
1.090402e-01
1.301754e-01
1.592333e-01
2.002231e-01
2.331901e-01
2.551972e-01
2.793114e-01
3.033240e-01
3.264199e-01
2.801781e-01
3.042638e-01
3.269739e-01
1.274237e-01
1.599656e-01
1.943238e-01
2.258725e-01
3.778920e-02
6.942109e-02
1.010881e-01
3.196417e-02
6.551270e-02
1.001953e-01
1.323965e-01
1.674571e-01
1.968304e-01
2.275579e-01
2.546537e-01
2.805576e-01
3.047905e-01
3.272950e-01
2.811446e-01
1.720431e-01
3.053567e-01
3.276085e-01
3.633592e-02
7.331935e-02
1.062626e-01
1.368588e-01
1.663398e-01
1.927263e-01
2.233952e-01
2.562348e-01
2.824057e-01
3.061939e-01
3.280318e-01
1.473115e-01