VARIABLES = "X" "Y" "Z" "FREF"
ZONE T="instant 064"
Nodes=3151, Elements=6298
ZONETYPE=FETriangle
DATAPACKING=BLOCK
VARLOCATION = ([1-3]=NODAL, [4]=CELLCENTERED)
5.000000e-01
2.081071e-01
2.289803e-01
2.463903e-01
2.615858e-01
2.789604e-01
2.969618e-01
3.154347e-01
3.347634e-01
3.545484e-01
3.736025e-01
3.908086e-01
4.066971e-01
4.215203e-01
4.350896e-01
4.470250e-01
4.571009e-01
4.647672e-01
4.717767e-01
4.790839e-01
4.854651e-01
4.905506e-01
4.943123e-01
4.970735e-01
4.988627e-01
4.997881e-01
1.914000e-01
1.914000e-01
1.914000e-01
1.914000e-01
1.914000e-01
1.914000e-01
1.914000e-01
1.914000e-01
1.914000e-01
1.914000e-01
1.914000e-01
1.914000e-01
3.407131e-01
3.392210e-01
3.356424e-01
3.298877e-01
3.229744e-01
3.180540e-01
3.117943e-01
3.037229e-01
2.958245e-01
2.882382e-01
2.799691e-01
2.703071e-01
2.622872e-01
2.546009e-01
2.471090e-01
2.376714e-01
2.282425e-01
2.211707e-01
2.123293e-01
2.022377e-01
3.414000e-01
4.860814e-01
4.704446e-01
4.561542e-01
4.418238e-01
4.261238e-01
4.098712e-01
3.947535e-01
3.802319e-01
3.656587e-01
3.526827e-01
3.797740e-01
2.352539e-01
2.241009e-01
3.921650e-01
3.718368e-01
2.401276e-01
2.505362e-01
2.312768e-01
2.531933e-01
2.116730e-01
2.543381e-01
2.407836e-01
2.590447e-01
2.706889e-01
4.872148e-01
2.845181e-01
3.002487e-01
2.774106e-01
2.879213e-01
3.308175e-01
3.426228e-01
3.773908e-01
3.576406e-01
3.593947e-01
3.872128e-01
3.975245e-01
3.776276e-01
4.813730e-01
4.725395e-01
3.888897e-01
4.055723e-01
3.985098e-01
4.157592e-01
4.098062e-01
4.203374e-01
3.517881e-01
3.745769e-01
3.631754e-01
3.452366e-01
2.318422e-01
2.174547e-01
2.063729e-01
2.096950e-01
2.093991e-01
2.268210e-01
2.437560e-01
2.102754e-01
2.275650e-01
2.446594e-01
2.618755e-01
2.016784e-01
2.134870e-01
2.290286e-01
2.460380e-01
4.842230e-01
2.629604e-01
2.797485e-01
2.808929e-01
2.977540e-01
2.835614e-01
2.979452e-01
3.153878e-01
2.087656e-01
2.279179e-01
2.465112e-01
2.658117e-01
2.577190e-01
2.578946e-01
2.678213e-01
2.769282e-01
2.963802e-01
3.112748e-01
3.212992e-01
3.337481e-01
2.087268e-01
2.260685e-01
2.446035e-01
2.653705e-01
2.811114e-01
2.949702e-01
3.112139e-01
2.971814e-01
3.087418e-01
3.135667e-01
3.264855e-01
3.400571e-01
3.558280e-01
2.730249e-01
2.867174e-01
3.006682e-01
3.265459e-01
4.792469e-01
4.700143e-01
4.635086e-01
4.554572e-01
3.416870e-01
3.569276e-01
3.733299e-01
2.784560e-01
3.138800e-01
3.279706e-01
3.429271e-01
3.571813e-01
3.726532e-01
3.892097e-01
2.926579e-01
3.072053e-01
3.222458e-01
3.300471e-01
3.449001e-01
3.612739e-01
4.738910e-01
4.635419e-01
4.545702e-01
4.468694e-01
4.382616e-01
3.714801e-01
3.867617e-01
4.036199e-01
3.422003e-01
3.597743e-01
3.811981e-01
3.990263e-01
4.168293e-01
2.970088e-01
3.114304e-01
3.265253e-01
3.426371e-01
3.771955e-01
3.946002e-01
4.119341e-01
4.293389e-01
3.589650e-01
3.752505e-01
3.913137e-01
4.078717e-01
4.240977e-01
4.408231e-01
4.296611e-01
4.406080e-01
3.134549e-01
3.280769e-01
3.434261e-01
3.594145e-01
3.754387e-01
3.906649e-01
4.041013e-01
4.209716e-01
4.352062e-01
4.515501e-01
4.004907e-01
4.073130e-01
4.674073e-01
4.567566e-01
4.474219e-01
4.386406e-01
4.307276e-01
4.231238e-01
4.136417e-01
4.142918e-01
4.223872e-01
4.312210e-01
4.390774e-01
4.488647e-01
4.599071e-01
1.914000e-01
4.997001e-01
4.978827e-01
4.948254e-01
4.907194e-01
4.841010e-01
4.764386e-01
4.666053e-01
4.543921e-01
4.393981e-01
4.239433e-01
4.098767e-01
3.947381e-01
3.789686e-01
3.622488e-01
3.476507e-01
3.353464e-01
3.229612e-01
3.090985e-01
2.942466e-01
2.791658e-01
2.640261e-01
2.487105e-01
2.334519e-01
2.182912e-01
2.039130e-01
5.000000e-01
3.525070e-01
3.656154e-01
3.799409e-01
3.955735e-01
4.105544e-01
4.251273e-01
4.406844e-01
4.574321e-01
4.733230e-01
4.878398e-01
3.414000e-01
2.012818e-01
2.110406e-01
2.227941e-01
2.366638e-01
2.475051e-01
2.577904e-01
2.677951e-01
2.775213e-01
2.858000e-01
2.919809e-01
2.999722e-01
3.072045e-01
3.129296e-01
3.175305e-01
3.219091e-01
3.278659e-01
3.322616e-01
3.347768e-01
3.370879e-01
3.393156e-01
3.409226e-01
1.914000e-01
1.914000e-01
1.914000e-01
1.914000e-01
1.914000e-01
1.914000e-01
1.914000e-01
1.914000e-01
1.914000e-01
1.914000e-01
1.914000e-01
3.806675e-01
4.073218e-01
2.265005e-01
2.561567e-01
2.468957e-01
3.509618e-01
3.568962e-01
3.696497e-01
3.687205e-01
3.861226e-01
3.866136e-01
3.939292e-01
3.768188e-01
4.272575e-01
2.058234e-01
4.154591e-01
3.971155e-01
4.180371e-01
3.846863e-01
4.089561e-01
3.976040e-01
4.237307e-01
4.123885e-01
2.090960e-01
2.572760e-01
2.291755e-01
2.214192e-01
2.097880e-01
2.512598e-01
2.761871e-01
2.417365e-01
2.752669e-01
2.607733e-01
2.844200e-01
2.716145e-01
2.942056e-01
3.056195e-01
2.160086e-01
3.535401e-01
2.077140e-01
2.184053e-01
2.355700e-01
3.452125e-01
3.586116e-01
3.692545e-01
4.838556e-01
4.675174e-01
4.764416e-01
4.805365e-01
4.441054e-01
4.519429e-01
4.586471e-01
4.645891e-01
2.362154e-01
2.244035e-01
2.078953e-01
4.730666e-01
4.414578e-01
4.477248e-01
4.540571e-01
4.672438e-01
4.318220e-01
4.350169e-01
4.523843e-01
4.593119e-01
3.447423e-01
3.516188e-01
3.609684e-01
4.156775e-01
4.284024e-01
4.446810e-01
4.024291e-01
4.185320e-01
4.241587e-01
4.313401e-01
4.359276e-01
4.386158e-01
4.423449e-01
3.315682e-01
3.684713e-01
3.823356e-01
4.001768e-01
4.095557e-01
4.211098e-01
4.313482e-01
3.359691e-01
3.412493e-01
3.501532e-01
3.895827e-01
4.008757e-01
2.514838e-01
2.401149e-01
4.097859e-01
4.177142e-01
3.178721e-01
3.573174e-01
3.667522e-01
3.824245e-01
3.899775e-01
3.970987e-01
4.036987e-01
3.229927e-01
3.272318e-01
3.352643e-01
3.693808e-01
3.776676e-01
3.835723e-01
3.893501e-01
3.399637e-01
2.657982e-01
2.527492e-01
2.383061e-01
2.230375e-01
2.066752e-01
3.457610e-01
3.595429e-01
3.643873e-01
3.692182e-01
3.743754e-01
3.003748e-01
3.058379e-01
3.099631e-01
3.179269e-01
3.448027e-01
3.495643e-01
3.545736e-01
3.591601e-01
3.208541e-01
3.248468e-01
3.291263e-01
3.354352e-01
3.406156e-01
3.436320e-01
2.090299e-01
2.266476e-01
2.477651e-01
2.640721e-01
2.792556e-01
2.948413e-01
3.100697e-01
2.793030e-01
2.829441e-01
2.961780e-01
2.995496e-01
3.014520e-01
3.080003e-01
3.152320e-01
3.242294e-01
3.249871e-01
3.266182e-01
2.804728e-01
2.671372e-01
2.538351e-01
2.400716e-01
2.246930e-01
2.083151e-01
2.838377e-01
2.963469e-01
3.100070e-01
2.581898e-01
2.695094e-01
2.819066e-01
2.953150e-01
5.000000e-01
5.000000e-01
5.000000e-01
5.000000e-01
5.000000e-01
5.000000e-01
5.000000e-01
5.000000e-01
5.000000e-01
5.000000e-01
5.000000e-01
5.000000e-01
5.000000e-01
5.000000e-01
5.000000e-01
5.000000e-01
5.000000e-01
5.000000e-01
5.000000e-01
5.000000e-01
5.000000e-01
5.000000e-01
5.000000e-01
5.000000e-01
5.000000e-01
5.000000e-01
5.000000e-01
5.000000e-01
5.000000e-01
5.000000e-01
5.000000e-01
5.000000e-01
5.000000e-01
1.914000e-01
1.914000e-01
1.914000e-01
1.914000e-01
1.914000e-01
1.914000e-01
1.914000e-01
1.914000e-01
1.914000e-01
1.914000e-01
1.914000e-01
1.914000e-01
1.914000e-01
1.914000e-01
1.914000e-01
1.914000e-01
1.914000e-01
1.914000e-01
1.914000e-01
1.914000e-01
1.914000e-01
1.914000e-01
1.914000e-01
1.914000e-01
1.914000e-01
1.914000e-01
1.914000e-01
1.914000e-01
1.914000e-01
1.914000e-01
1.914000e-01
1.914000e-01
1.914000e-01
3.702639e-01
3.800373e-01
3.761356e-01
3.856139e-01
3.956698e-01
4.196700e-01
4.028127e-01
4.101996e-01
3.372016e-01
3.458637e-01
3.530603e-01
3.541587e-01
3.611595e-01
3.667037e-01
3.715757e-01
3.940332e-01
3.780998e-01
3.699419e-01
3.852027e-01
4.004647e-01
3.623701e-01
3.622310e-01
2.153064e-01
2.058336e-01
3.756195e-01
3.908420e-01
4.062234e-01
3.900517e-01
3.998886e-01
4.100568e-01
4.039342e-01
4.131733e-01
4.170614e-01
4.360873e-01
4.062263e-01
4.177104e-01
4.012421e-01
4.234872e-01
4.093161e-01
3.944477e-01
4.286422e-01
4.151817e-01
4.024194e-01
3.894249e-01
4.280267e-01
4.382830e-01
4.348575e-01
4.248108e-01
4.163589e-01
2.341716e-01
2.225122e-01
2.091391e-01
3.849471e-01
3.944668e-01
4.025194e-01
3.780859e-01
3.873171e-01
3.712055e-01
2.055301e-01
2.163022e-01
2.186255e-01
2.293247e-01
2.321730e-01
2.407048e-01
2.433058e-01
2.462553e-01
2.473180e-01
2.537533e-01
2.574595e-01
2.607235e-01
2.620695e-01
2.678045e-01
2.719152e-01
2.754655e-01
2.709256e-01
2.771668e-01
2.824253e-01
2.866497e-01
2.903931e-01
2.811020e-01
2.867761e-01
2.924328e-01
2.973891e-01
3.015735e-01
3.054047e-01
2.907999e-01
2.517421e-01
2.403365e-01
2.281561e-01
2.154841e-01
2.066982e-01
2.967716e-01
3.024638e-01
3.078105e-01
3.125616e-01
3.165564e-01
3.203686e-01
3.060948e-01
3.125085e-01
3.181042e-01
3.232502e-01
3.278904e-01
3.314009e-01
3.351170e-01
3.146114e-01
3.219229e-01
3.284753e-01
3.336422e-01
3.386965e-01
3.435036e-01
3.456871e-01
3.494953e-01
3.230157e-01
3.305566e-01
3.379837e-01
3.448382e-01
3.487127e-01
3.541444e-01
3.602363e-01
3.582389e-01
3.639872e-01
3.771511e-01
4.142133e-01
3.580549e-01
3.717416e-01
3.867621e-01
2.690564e-01
2.581849e-01
2.466472e-01
2.349503e-01
2.242451e-01
2.137992e-01
4.019063e-01
3.484596e-01
3.633840e-01
3.791373e-01
3.947138e-01
4.085691e-01
4.213650e-01
3.783236e-01
3.870664e-01
3.925577e-01
3.980909e-01
4.029562e-01
4.091604e-01
4.155682e-01
4.218609e-01
4.223605e-01
4.256241e-01
4.292934e-01
4.313395e-01
4.339917e-01
4.372523e-01
4.092666e-01
4.170658e-01
4.237544e-01
4.302403e-01
4.365259e-01
4.416102e-01
4.449027e-01
4.212791e-01
4.246144e-01
4.306934e-01
4.381880e-01
4.439797e-01
4.482984e-01
4.520337e-01
4.339618e-01
4.459194e-01
4.442511e-01
4.531567e-01
4.553243e-01
4.587339e-01
4.624126e-01
4.652006e-01
4.447476e-01
4.580575e-01
4.660547e-01
4.709909e-01
4.551181e-01
4.666413e-01
4.718187e-01
4.760763e-01
4.727381e-01
4.813252e-01
2.867803e-01
2.760049e-01
2.647768e-01
2.533695e-01
2.421472e-01
2.308044e-01
2.175945e-01
2.076173e-01
4.786001e-01
4.862480e-01
4.809723e-01
4.872060e-01
4.937994e-01
4.982184e-01
4.960049e-01
4.931481e-01
4.927230e-01
4.897706e-01
4.882398e-01
4.889035e-01
4.826806e-01
4.834885e-01
4.845136e-01
4.857538e-01
4.761239e-01
4.769102e-01
4.780816e-01
4.795131e-01
4.811247e-01
4.691312e-01
4.704502e-01
4.720874e-01
4.739615e-01
4.759633e-01
4.679766e-01
4.703663e-01
4.600379e-01
4.615986e-01
4.634425e-01
4.656078e-01
4.497968e-01
4.515377e-01
4.535417e-01
4.559996e-01
4.588272e-01
4.617159e-01
4.643662e-01
4.387781e-01
4.403842e-01
4.423682e-01
4.450324e-01
4.483989e-01
4.520628e-01
4.552502e-01
4.576775e-01
4.156999e-01
4.169473e-01
4.283580e-01
4.299972e-01
4.325040e-01
4.366032e-01
4.409742e-01
4.460536e-01
4.471440e-01
4.507030e-01
4.182455e-01
4.291653e-01
4.107909e-01
2.390257e-01
2.627003e-01
2.496152e-01
2.679298e-01
2.615201e-01
2.851064e-01
2.807842e-01
2.741416e-01
3.073253e-01
2.995396e-01
3.048335e-01
2.938826e-01
2.827207e-01
2.714396e-01
2.601349e-01
2.487045e-01
2.368197e-01
2.254768e-01
2.143348e-01
2.931605e-01
2.865542e-01
3.270953e-01
3.191447e-01
3.119334e-01
3.052250e-01
2.986674e-01
3.383230e-01
3.306555e-01
3.236355e-01
3.169756e-01
3.104821e-01
3.568957e-01
3.489815e-01
3.417196e-01
3.349581e-01
3.284560e-01
3.220158e-01
3.744730e-01
3.667170e-01
3.592925e-01
3.524805e-01
3.460465e-01
3.397133e-01
3.332559e-01
3.905056e-01
3.838892e-01
3.761815e-01
3.693793e-01
3.630749e-01
3.570202e-01
3.507299e-01
3.441161e-01
4.037886e-01
4.015308e-01
3.921340e-01
3.855576e-01
3.792924e-01
3.737470e-01
3.679156e-01
3.612815e-01
3.544994e-01
4.451227e-01
4.357467e-01
4.240431e-01
4.108655e-01
3.962757e-01
3.806458e-01
3.643808e-01
4.329871e-01
4.202769e-01
4.060038e-01
3.896301e-01
3.736780e-01
2.061579e-01
2.047572e-01
2.075273e-01
2.216923e-01
2.173909e-01
2.258252e-01
2.373922e-01
2.057570e-01
2.189174e-01
2.309975e-01
2.415577e-01
2.528597e-01
2.067247e-01
2.205322e-01
2.334264e-01
2.454754e-01
2.568275e-01
2.682032e-01
3.231551e-01
3.117786e-01
3.005212e-01
2.893104e-01
2.780616e-01
2.666920e-01
2.551033e-01
2.434580e-01
2.315410e-01
2.181193e-01
2.070023e-01
2.030718e-01
2.105521e-01
2.228007e-01
2.356432e-01
2.482012e-01
2.602942e-01
2.720156e-01
2.835244e-01
2.022361e-01
2.057238e-01
2.169664e-01
2.267752e-01
2.384166e-01
2.507435e-01
2.630906e-01
2.752368e-01
2.871947e-01
2.989462e-01
2.097075e-01
2.207158e-01
2.314982e-01
2.420161e-01
2.535875e-01
2.657261e-01
2.779802e-01
2.901697e-01
3.023114e-01
3.147150e-01
3.282845e-01
2.037292e-01
2.147524e-01
2.247742e-01
2.355901e-01
2.461530e-01
2.567235e-01
2.684487e-01
2.805636e-01
2.927872e-01
3.049749e-01
3.170878e-01
3.293276e-01
3.404048e-01
2.047155e-01
2.170157e-01
2.277003e-01
2.393466e-01
2.504751e-01
2.607699e-01
2.708732e-01
2.831614e-01
2.952119e-01
3.074746e-01
3.196260e-01
3.316190e-01
3.440708e-01
3.536805e-01
1.988127e-01
2.066490e-01
2.181628e-01
2.310868e-01
2.403492e-01
2.545231e-01
2.655635e-01
2.754490e-01
2.839815e-01
2.982715e-01
3.095409e-01
3.221081e-01
3.341124e-01
3.456406e-01
3.600925e-01
3.669643e-01
3.415992e-01
3.295574e-01
3.180876e-01
3.069627e-01
2.958524e-01
2.846108e-01
2.731663e-01
2.615139e-01
2.495451e-01
2.369764e-01
2.243005e-01
2.099197e-01
4.991478e-01
4.997023e-01
4.971166e-01
4.986284e-01
4.996241e-01
4.939808e-01
4.964743e-01
4.983300e-01
4.995511e-01
4.860241e-01
4.899324e-01
4.932377e-01
4.959709e-01
4.980871e-01
4.994860e-01
4.707627e-01
4.794559e-01
4.846824e-01
4.888964e-01
4.924842e-01
4.954877e-01
4.978422e-01
4.994156e-01
4.735649e-01
4.786738e-01
4.834813e-01
4.878425e-01
4.916844e-01
4.949491e-01
4.975430e-01
4.993165e-01
4.610238e-01
4.662304e-01
4.715669e-01
4.769808e-01
4.820411e-01
4.866542e-01
4.907529e-01
4.942633e-01
4.970900e-01
4.991101e-01
4.996278e-01
4.498913e-01
4.570175e-01
4.633245e-01
4.693591e-01
4.750902e-01
4.804149e-01
4.852721e-01
4.895962e-01
4.932961e-01
4.962319e-01
4.982063e-01
4.995036e-01
4.293157e-01
4.386168e-01
4.467406e-01
4.539615e-01
4.606838e-01
4.670445e-01
4.730217e-01
4.785673e-01
4.836309e-01
4.881503e-01
4.920473e-01
4.952353e-01
4.977119e-01
4.993808e-01
4.038495e-01
4.167817e-01
4.269680e-01
4.358714e-01
4.437290e-01
4.510517e-01
3.598035e-01
3.469976e-01
3.351889e-01
3.242886e-01
3.134360e-01
3.024044e-01
2.911283e-01
2.795852e-01
2.677257e-01
2.554584e-01
2.428251e-01
2.296325e-01
2.164866e-01
4.579958e-01
4.645611e-01
4.707185e-01
4.764367e-01
4.816694e-01
4.863848e-01
4.905718e-01
4.942027e-01
4.972343e-01
4.992393e-01
2.053644e-01
2.196051e-01
2.340565e-01
2.487574e-01
2.636885e-01
2.788014e-01
2.940285e-01
3.092878e-01
3.244909e-01
3.395731e-01
3.545616e-01
3.694408e-01
3.841046e-01
3.986737e-01
4.126855e-01
4.259069e-01
4.381524e-01
4.500009e-01
4.619084e-01
4.701654e-01
4.779406e-01
4.863780e-01
4.923342e-01
4.968657e-01
3.920134e-01
4.058354e-01
4.153673e-01
4.248102e-01
4.328451e-01
4.405772e-01
4.480410e-01
4.551433e-01
4.618279e-01
4.681118e-01
4.739542e-01
4.792772e-01
4.841773e-01
4.887246e-01
4.927201e-01
4.969228e-01
4.988273e-01
2.060659e-01
2.209220e-01
2.359724e-01
2.512143e-01
2.666273e-01
2.821694e-01
2.977816e-01
3.133969e-01
3.289516e-01
3.443972e-01
3.596846e-01
3.747366e-01
3.894680e-01
4.037617e-01
4.174495e-01
4.304307e-01
4.426417e-01
4.540735e-01
4.643139e-01
4.733706e-01
4.814484e-01
4.885450e-01
4.941632e-01
4.981992e-01
2.067834e-01
2.222880e-01
2.379380e-01
2.537446e-01
2.696833e-01
2.857054e-01
3.017494e-01
3.177491e-01
3.336385e-01
3.493498e-01
3.648057e-01
3.799168e-01
3.945836e-01
4.086988e-01
4.221602e-01
4.348779e-01
4.467586e-01
4.576834e-01
4.675416e-01
4.763295e-01
4.839929e-01
4.904258e-01
4.954262e-01
4.987564e-01
2.075253e-01
2.236916e-01
2.400027e-01
2.564449e-01
2.729657e-01
2.895010e-01
3.059836e-01
3.223449e-01
3.385132e-01
3.773278e-01
3.639114e-01
3.513718e-01
3.411312e-01
3.307357e-01
3.200190e-01
3.089755e-01
2.976118e-01
2.859251e-01
2.738904e-01
2.614957e-01
2.486907e-01
2.354525e-01
2.210351e-01
2.098697e-01
3.544121e-01
3.699585e-01
3.850624e-01
3.996281e-01
4.135600e-01
4.267676e-01
4.391619e-01
4.506497e-01
4.611447e-01
4.705839e-01
4.789115e-01
4.860438e-01
4.918753e-01
4.962648e-01
4.990384e-01
2.082020e-01
2.251803e-01
2.422964e-01
2.594635e-01
2.766040e-01
2.936506e-01
3.105410e-01
3.272119e-01
3.435940e-01
3.596134e-01
3.751922e-01
3.902433e-01
4.046696e-01
4.183763e-01
4.312815e-01
4.433053e-01
4.543680e-01
4.644030e-01
4.733555e-01
4.811586e-01
4.877326e-01
4.929941e-01
4.968508e-01
4.992092e-01
2.090842e-01
2.270738e-01
2.450963e-01
2.630146e-01
2.807511e-01
2.982560e-01
3.154830e-01
3.323858e-01
3.489045e-01
3.649817e-01
3.805507e-01
3.955138e-01
4.097577e-01
4.231803e-01
4.357258e-01
4.473276e-01
4.579198e-01
4.674496e-01
4.758766e-01
4.831306e-01
4.891516e-01
4.938905e-01
4.972954e-01
4.993313e-01
2.105800e-01
2.297456e-01
2.486999e-01
2.673036e-01
2.855464e-01
3.034135e-01
3.208522e-01
3.378709e-01
3.544284e-01
3.705315e-01
3.860841e-01
4.009361e-01
4.149568e-01
4.280058e-01
4.401194e-01
4.512292e-01
4.613182e-01
4.703140e-01
4.781951e-01
4.848785e-01
4.903695e-01
4.946498e-01
4.976707e-01
4.994355e-01
2.127507e-01
2.335208e-01
2.533748e-01
2.724216e-01
2.911294e-01
3.092722e-01
3.266223e-01
3.435349e-01
3.600315e-01
3.763499e-01
3.918708e-01
4.065757e-01
4.203997e-01
4.328999e-01
4.444425e-01
4.549209e-01
4.646411e-01
4.730872e-01
4.803520e-01
4.863857e-01
4.914231e-01
4.953536e-01
3.939070e-01
3.805934e-01
3.656738e-01
3.573994e-01
3.477050e-01
3.374015e-01
3.266581e-01
3.155266e-01
3.040521e-01
2.922582e-01
2.801415e-01
2.676842e-01
2.548948e-01
2.418836e-01
2.296176e-01
2.164041e-01
4.980464e-01
4.995457e-01
2.173992e-01
2.401278e-01
2.585783e-01
2.782592e-01
2.979262e-01
3.163792e-01
3.325392e-01
3.472118e-01
3.661298e-01
3.828096e-01
3.979091e-01
4.123308e-01
4.267502e-01
4.382509e-01
4.479536e-01
4.581692e-01
4.684247e-01
4.761601e-01
4.819672e-01
4.875330e-01
4.923138e-01
4.961643e-01
4.985668e-01
4.996307e-01
4.996288e-01
4.994641e-01
4.983762e-01
4.996575e-01
4.990763e-01
4.978011e-01
4.961326e-01
4.994708e-01
4.983893e-01
4.969909e-01
4.950725e-01
4.928467e-01
4.991054e-01
4.977686e-01
4.959839e-01
4.938241e-01
4.912684e-01
4.884563e-01
4.995014e-01
4.981087e-01
4.968895e-01
4.949014e-01
4.924205e-01
4.895551e-01
4.863651e-01
4.829200e-01
4.763272e-01
4.993217e-01
4.978586e-01
4.958458e-01
4.936553e-01
4.909125e-01
4.877185e-01
4.841750e-01
4.803680e-01
4.688837e-01
4.996449e-01
4.989659e-01
4.973585e-01
4.950964e-01
4.923769e-01
4.893163e-01
4.857988e-01
4.818844e-01
4.776853e-01
4.733225e-01
4.606118e-01
4.994406e-01
4.982901e-01
4.966340e-01
4.942107e-01
4.911901e-01
4.877152e-01
4.838403e-01
4.795528e-01
4.749094e-01
4.700850e-01
4.652679e-01
4.990803e-01
4.976951e-01
4.957305e-01
4.931574e-01
4.899225e-01
4.861359e-01
4.818898e-01
4.772278e-01
4.721764e-01
4.667521e-01
4.613499e-01
4.561925e-01
4.510509e-01
4.396755e-01
4.995614e-01
4.982504e-01
4.969467e-01
4.948136e-01
4.919997e-01
4.885511e-01
4.845072e-01
4.799504e-01
4.749307e-01
4.694976e-01
4.637063e-01
4.572524e-01
4.514512e-01
4.461899e-01
3.974697e-01
4.094759e-01
4.994082e-01
4.981937e-01
4.962431e-01
4.938903e-01
4.908420e-01
4.871314e-01
4.828196e-01
4.779792e-01
4.726692e-01
4.668647e-01
4.606774e-01
4.543578e-01
4.456643e-01
4.405654e-01
4.359059e-01
4.245035e-01
1.914000e-01
1.914000e-01
1.914000e-01
1.914000e-01
1.914000e-01
1.914000e-01
1.914000e-01
1.914000e-01
1.914000e-01
1.914000e-01
1.914000e-01
1.914000e-01
1.914000e-01
1.914000e-01
1.914000e-01
1.914000e-01
1.914000e-01
1.914000e-01
1.914000e-01
1.914000e-01
1.914000e-01
1.914000e-01
1.914000e-01
1.914000e-01
1.914000e-01
1.914000e-01
1.914000e-01
1.914000e-01
1.914000e-01
1.914000e-01
1.914000e-01
1.914000e-01
1.914000e-01
1.914000e-01
1.914000e-01
1.914000e-01
1.914000e-01
1.914000e-01
1.914000e-01
1.914000e-01
1.914000e-01
1.914000e-01
1.914000e-01
1.914000e-01
1.914000e-01
1.914000e-01
1.914000e-01
1.914000e-01
1.914000e-01
1.914000e-01
1.914000e-01
1.914000e-01
1.914000e-01
1.914000e-01
1.914000e-01
1.914000e-01
1.914000e-01
1.914000e-01
1.914000e-01
1.914000e-01
1.914000e-01
1.914000e-01
1.914000e-01
1.914000e-01
1.914000e-01
1.914000e-01
1.914000e-01
1.914000e-01
1.914000e-01
1.914000e-01
1.914000e-01
1.914000e-01
1.914000e-01
1.914000e-01
1.914000e-01
1.914000e-01
1.914000e-01
1.914000e-01
1.914000e-01
1.914000e-01
1.914000e-01
1.914000e-01
1.914000e-01
1.914000e-01
1.914000e-01
1.914000e-01
1.914000e-01
1.914000e-01
1.914000e-01
1.914000e-01
1.914000e-01
1.914000e-01
1.914000e-01
1.914000e-01
1.914000e-01
1.914000e-01
1.914000e-01
1.914000e-01
1.914000e-01
1.914000e-01
1.914000e-01
1.914000e-01
1.914000e-01
1.914000e-01
1.914000e-01
1.914000e-01
1.914000e-01
1.914000e-01
1.914000e-01
1.914000e-01
1.914000e-01
1.914000e-01
1.914000e-01
1.914000e-01
1.914000e-01
1.914000e-01
1.914000e-01
1.914000e-01
1.914000e-01
1.914000e-01
1.914000e-01
1.914000e-01
1.914000e-01
1.914000e-01
1.914000e-01
1.914000e-01
1.914000e-01
1.914000e-01
1.914000e-01
1.914000e-01
1.914000e-01
1.914000e-01
1.914000e-01
1.914000e-01
1.914000e-01
1.914000e-01
1.914000e-01
1.914000e-01
1.914000e-01
1.914000e-01
1.914000e-01
1.914000e-01
1.914000e-01
1.914000e-01
1.914000e-01
1.914000e-01
1.914000e-01
1.914000e-01
1.914000e-01
1.914000e-01
1.914000e-01
1.914000e-01
1.914000e-01
1.914000e-01
1.914000e-01
1.914000e-01
1.914000e-01
1.914000e-01
1.914000e-01
1.914000e-01
1.914000e-01
1.914000e-01
1.914000e-01
1.914000e-01
1.914000e-01
1.914000e-01
1.914000e-01
1.914000e-01
1.914000e-01
1.914000e-01
1.914000e-01
1.914000e-01
1.914000e-01
1.914000e-01
1.914000e-01
1.914000e-01
1.914000e-01
1.914000e-01
1.914000e-01
1.914000e-01
1.914000e-01
1.914000e-01
1.914000e-01
1.914000e-01
1.914000e-01
1.914000e-01
1.914000e-01
1.914000e-01
1.914000e-01
1.914000e-01
1.914000e-01
1.914000e-01
1.914000e-01
1.914000e-01
1.914000e-01
1.914000e-01
1.914000e-01
1.914000e-01
1.914000e-01
1.914000e-01
1.914000e-01
1.914000e-01
1.914000e-01
1.914000e-01
1.914000e-01
1.914000e-01
1.914000e-01
1.914000e-01
1.914000e-01
1.914000e-01
1.914000e-01
1.914000e-01
1.914000e-01
1.914000e-01
1.914000e-01
1.914000e-01
1.914000e-01
1.914000e-01
1.914000e-01
1.914000e-01
1.914000e-01
1.914000e-01
1.914000e-01
1.914000e-01
1.914000e-01
1.914000e-01
1.914000e-01
1.914000e-01
1.914000e-01
1.914000e-01
1.914000e-01
1.914000e-01
1.914000e-01
1.914000e-01
1.914000e-01
1.914000e-01
1.914000e-01
1.914000e-01
1.914000e-01
1.914000e-01
1.914000e-01
1.914000e-01
1.914000e-01
1.914000e-01
1.914000e-01
1.914000e-01
1.914000e-01
1.914000e-01
1.914000e-01
1.914000e-01
1.914000e-01
1.914000e-01
1.914000e-01
1.914000e-01
1.914000e-01
1.914000e-01
1.914000e-01
1.914000e-01
1.914000e-01
1.914000e-01
1.914000e-01
1.914000e-01
1.914000e-01
1.914000e-01
1.914000e-01
1.914000e-01
1.914000e-01
1.914000e-01
1.914000e-01
1.914000e-01
1.914000e-01
1.914000e-01
1.914000e-01
1.914000e-01
1.914000e-01
1.914000e-01
1.914000e-01
1.914000e-01
1.914000e-01
1.914000e-01
1.914000e-01
1.914000e-01
1.914000e-01
1.914000e-01
1.914000e-01
1.914000e-01
1.914000e-01
1.914000e-01
1.914000e-01
1.914000e-01
1.914000e-01
1.914000e-01
1.914000e-01
1.914000e-01
1.914000e-01
1.914000e-01
1.914000e-01
1.914000e-01
1.914000e-01
1.914000e-01
1.914000e-01
1.914000e-01
1.914000e-01
1.914000e-01
1.914000e-01
1.914000e-01
1.914000e-01
1.914000e-01
1.914000e-01
1.914000e-01
1.914000e-01
1.914000e-01
1.914000e-01
1.914000e-01
1.914000e-01
1.914000e-01
1.914000e-01
1.914000e-01
1.914000e-01
1.914000e-01
1.914000e-01
1.914000e-01
1.914000e-01
1.914000e-01
1.914000e-01
1.914000e-01
1.914000e-01
1.914000e-01
1.914000e-01
1.914000e-01
1.914000e-01
1.914000e-01
1.914000e-01
1.914000e-01
1.914000e-01
1.914000e-01
1.914000e-01
1.914000e-01
1.914000e-01
1.914000e-01
1.914000e-01
1.914000e-01
1.914000e-01
1.914000e-01
1.914000e-01
1.914000e-01
1.914000e-01
1.914000e-01
1.914000e-01
1.914000e-01
1.914000e-01
1.914000e-01
1.914000e-01
1.914000e-01
1.914000e-01
1.914000e-01
1.914000e-01
1.914000e-01
1.914000e-01
1.914000e-01
1.914000e-01
1.914000e-01
1.914000e-01
1.914000e-01
1.914000e-01
1.914000e-01
1.914000e-01
1.914000e-01
1.914000e-01
1.914000e-01
3.414000e-01
3.414000e-01
3.414000e-01
3.414000e-01
3.414000e-01
3.414000e-01
3.414000e-01
3.414000e-01
3.414000e-01
3.414000e-01
3.414000e-01
3.414000e-01
3.414000e-01
3.414000e-01
3.414000e-01
3.414000e-01
3.414000e-01
3.414000e-01
3.414000e-01
3.414000e-01
3.414000e-01
3.414000e-01
3.414000e-01
3.414000e-01
3.414000e-01
3.414000e-01
3.414000e-01
3.414000e-01
3.414000e-01
3.414000e-01
3.414000e-01
3.414000e-01
3.414000e-01
2.998579e-01
2.938514e-01
3.096222e-01
2.986424e-01
3.028930e-01
2.908075e-01
2.895993e-01
2.846833e-01
2.803925e-01
2.976125e-01
2.905021e-01
2.846819e-01
2.944730e-01
2.828593e-01
2.910385e-01
2.136634e-01
3.399143e-01
3.375479e-01
3.324497e-01
3.346172e-01
3.329350e-01
3.284180e-01
3.330053e-01
3.300073e-01
3.269608e-01
3.271424e-01
3.234512e-01
3.195699e-01
3.232776e-01
3.193964e-01
3.155343e-01
3.110029e-01
3.374385e-01
3.187579e-01
3.145103e-01
3.101909e-01
3.075728e-01
3.013741e-01
2.956058e-01
3.006284e-01
2.896296e-01
3.144984e-01
3.055302e-01
3.402077e-01
2.949616e-01
2.821138e-01
2.902833e-01
2.844875e-01
2.785459e-01
2.737488e-01
2.710467e-01
2.766941e-01
2.706859e-01
2.657363e-01
2.618709e-01
2.682601e-01
2.610792e-01
2.564708e-01
2.522382e-01
2.496551e-01
2.459898e-01
2.419913e-01
2.347899e-01
2.309992e-01
2.180797e-01
2.606306e-01
2.447310e-01
2.314204e-01
2.207020e-01
2.079661e-01
3.324841e-01
3.285179e-01
3.408095e-01
3.387471e-01
3.399473e-01
3.354942e-01
3.371586e-01
3.333849e-01
3.289242e-01
3.335180e-01
3.368051e-01
3.397439e-01
2.381192e-01
2.259841e-01
2.093753e-01
2.372746e-01
2.209363e-01
2.035627e-01
3.322361e-01
3.282791e-01
3.407451e-01
3.386254e-01
3.398230e-01
3.353801e-01
3.369742e-01
3.331487e-01
3.286581e-01
2.371618e-01
2.254026e-01
2.100344e-01
2.382147e-01
2.214786e-01
2.036812e-01
3.406924e-01
3.384687e-01
3.396251e-01
3.351422e-01
3.366289e-01
3.328196e-01
3.285742e-01
2.388824e-01
2.264232e-01
2.100138e-01
3.404927e-01
3.376351e-01
3.346991e-01
3.325149e-01
3.298022e-01
3.286600e-01
3.218352e-01
2.382696e-01
2.230237e-01
2.046836e-01
2.641855e-01
2.503389e-01
2.353801e-01
2.174137e-01
2.034572e-01
3.327331e-01
3.289158e-01
3.407704e-01
3.386766e-01
3.398304e-01
3.354175e-01
3.370065e-01
3.330843e-01
3.286280e-01
2.403392e-01
2.278370e-01
2.110516e-01
2.378690e-01
2.220374e-01
3.196995e-01
3.268462e-01
3.316352e-01
3.353714e-01
2.040515e-01
3.407128e-01
3.386424e-01
3.356602e-01
2.400335e-01
2.274875e-01
2.100008e-01
3.305349e-01
3.261607e-01
3.404855e-01
3.380147e-01
3.393731e-01
3.344206e-01
3.359264e-01
3.296322e-01
3.312567e-01
3.235789e-01
3.260846e-01
2.594896e-01
2.465397e-01
2.334247e-01
2.205375e-01
2.063112e-01
2.331280e-01
2.179895e-01
2.023913e-01
3.404562e-01
3.377493e-01
3.389827e-01
3.338742e-01
3.355993e-01
3.315341e-01
3.269609e-01
3.088581e-01
2.352757e-01
2.240407e-01
2.083470e-01
3.408636e-01
3.381298e-01
3.343297e-01
3.315858e-01
3.287397e-01
3.274190e-01
3.199865e-01
2.362600e-01
2.209118e-01
2.037426e-01
2.614915e-01
2.480139e-01
2.335482e-01
2.161764e-01
2.027956e-01
3.312173e-01
3.270206e-01
3.405631e-01
3.381676e-01
3.395168e-01
3.346422e-01
3.362743e-01
3.318721e-01
3.270119e-01
2.381225e-01
2.259844e-01
2.098743e-01
2.348514e-01
2.198986e-01
2.031020e-01
3.313583e-01
3.272234e-01
3.405684e-01
3.002913e-01
3.380865e-01
3.394844e-01
3.344302e-01
3.362925e-01
3.321481e-01
3.273903e-01
2.357752e-01
2.236784e-01
2.082350e-01
2.334999e-01
2.187669e-01
2.025567e-01
3.405127e-01
3.379034e-01
3.390971e-01
3.342223e-01
3.354269e-01
3.305675e-01
3.256218e-01
2.344716e-01
2.231042e-01
2.074977e-01
3.402862e-01
3.382239e-01
3.354712e-01
3.295517e-01
3.303709e-01
3.250461e-01
3.216812e-01
2.337868e-01
2.187013e-01
2.025059e-01
2.642357e-01
2.511801e-01
2.323337e-01
2.188596e-01
2.063450e-01
3.403814e-01
3.372829e-01
3.380127e-01
3.176035e-01
3.245154e-01
3.297283e-01
3.336347e-01
3.361372e-01
3.392389e-01
3.329052e-01
3.340586e-01
3.291556e-01
3.240652e-01
2.335599e-01
2.222447e-01
2.075103e-01
3.403459e-01
3.361543e-01
3.295892e-01
3.248818e-01
3.188705e-01
2.338367e-01
2.186192e-01
2.024313e-01
2.060551e-01
3.340311e-01
3.315718e-01
3.274815e-01
3.269871e-01
3.203113e-01
3.187379e-01
3.207115e-01
3.133531e-01
3.049474e-01
3.080308e-01
3.116567e-01
3.137342e-01
2.967073e-01
3.012196e-01
3.052468e-01
3.038613e-01
2.769979e-01
2.676206e-01
2.604899e-01
2.532714e-01
2.449538e-01
2.350181e-01
2.242648e-01
2.164027e-01
2.066476e-01
2.228768e-01
2.282450e-01
2.378859e-01
2.386586e-01
2.542940e-01
2.505494e-01
2.476540e-01
2.641732e-01
2.600167e-01
2.565416e-01
2.643838e-01
2.772298e-01
2.722964e-01
2.680555e-01
2.888907e-01
2.842866e-01
2.792101e-01
2.752123e-01
2.718626e-01
2.972174e-01
2.796657e-01
2.875322e-01
2.911032e-01
3.380652e-01
2.052051e-01
3.400717e-01
3.398784e-01
3.384552e-01
3.360625e-01
3.407785e-01
3.310876e-01
3.288497e-01
3.257365e-01
3.013842e-01
3.076556e-01
3.155877e-01
3.225140e-01
3.280823e-01
3.323589e-01
3.357019e-01
3.387853e-01
3.408334e-01
3.395151e-01
3.371865e-01
3.336730e-01
3.143088e-01
3.405993e-01
3.388726e-01
3.363510e-01
3.326501e-01
3.283090e-01
3.241052e-01
3.197645e-01
3.410387e-01
3.401246e-01
3.377021e-01
3.358263e-01
3.312224e-01
3.264951e-01
3.221360e-01
3.185501e-01
3.115303e-01
3.050124e-01
2.101273e-01
2.015296e-01
2.368300e-01
2.282673e-01
2.172690e-01
2.068089e-01
2.389782e-01
2.250779e-01
2.726065e-01
2.670986e-01
2.577235e-01
2.446933e-01
2.335022e-01
2.227455e-01
2.121708e-01
2.032398e-01
2.575574e-01
2.475692e-01
3.305869e-01
3.244938e-01
3.177579e-01
3.091996e-01
2.990507e-01
2.872773e-01
2.745330e-01
3.407455e-01
3.391809e-01
3.357036e-01
3.303482e-01
3.235431e-01
3.146920e-01
3.052682e-01
2.947064e-01
2.834881e-01
2.738023e-01
2.623822e-01
2.515951e-01
2.394639e-01
2.233992e-01
2.091396e-01
2.850276e-01
2.779716e-01
2.693577e-01
2.590517e-01
2.484012e-01
2.379223e-01
2.273731e-01
2.169539e-01
2.066879e-01
2.025224e-01
3.198740e-01
3.129702e-01
3.036821e-01
2.924230e-01
2.257418e-01
2.202697e-01
2.072761e-01
2.774606e-01
2.640342e-01
2.498201e-01
2.351159e-01
2.200800e-01
2.072656e-01
3.304475e-01
3.243479e-01
3.174001e-01
3.083773e-01
2.981641e-01
2.868716e-01
2.746270e-01
2.610701e-01
2.479615e-01
2.343546e-01
3.406124e-01
3.390500e-01
3.356715e-01
3.309352e-01
3.238840e-01
3.134155e-01
3.034690e-01
2.925206e-01
2.808430e-01
2.697704e-01
3.406022e-01
3.381495e-01
3.346705e-01
3.308765e-01
3.254087e-01