VARIABLES = "X" "Y" "Z" "FREF"
ZONE T="instant 097"
STRANDID=0, SOLUTIONTIME=0
Nodes=3151, Elements=6298
ZONETYPE=FETriangle
DATAPACKING=BLOCK
VARLOCATION = ([1-3]=NODAL, [4]=CELLCENTERED)
5.000000e-01
2.903305e-01
3.075540e-01
3.208823e-01
3.313369e-01
3.441702e-01
3.573888e-01
3.708808e-01
3.856626e-01
4.015748e-01
4.160992e-01
4.280909e-01
4.388199e-01
4.486103e-01
4.575668e-01
4.654561e-01
4.720562e-01
4.769603e-01
4.814890e-01
4.863801e-01
4.906370e-01
4.939320e-01
4.963060e-01
4.980487e-01
4.992231e-01
4.998600e-01
2.772000e-01
2.772000e-01
2.772000e-01
2.772000e-01
2.772000e-01
2.772000e-01
2.772000e-01
2.772000e-01
2.772000e-01
2.772000e-01
2.772000e-01
2.772000e-01
4.268818e-01
4.261141e-01
4.230930e-01
4.181346e-01
4.086622e-01
4.030614e-01
3.960322e-01
3.865429e-01
3.788771e-01
3.713551e-01
3.630949e-01
3.533027e-01
3.455269e-01
3.384450e-01
3.323240e-01
3.243829e-01
3.161446e-01
3.105956e-01
3.023138e-01
2.901581e-01
4.272000e-01
4.929319e-01
4.859183e-01
4.788079e-01
4.725051e-01
4.651596e-01
4.585203e-01
4.515819e-01
4.450166e-01
4.386301e-01
4.327459e-01
4.397141e-01
3.158867e-01
3.041541e-01
4.481685e-01
4.340999e-01
3.242311e-01
3.324150e-01
3.161558e-01
3.318078e-01
2.940845e-01
3.332728e-01
3.194606e-01
3.347289e-01
3.448372e-01
4.932381e-01
3.544764e-01
3.649853e-01
3.499580e-01
3.578856e-01
4.084549e-01
4.130590e-01
4.424043e-01
4.290611e-01
4.227076e-01
4.476409e-01
4.489713e-01
4.343824e-01
4.897985e-01
4.861247e-01
4.430883e-01
4.509981e-01
4.451197e-01
4.563241e-01
4.475453e-01
4.564240e-01
4.320092e-01
4.419168e-01
4.362494e-01
4.256984e-01
3.180236e-01
3.040897e-01
2.883927e-01
2.923613e-01
2.915312e-01
3.062740e-01
3.181362e-01
2.931219e-01
3.053152e-01
3.195113e-01
3.316865e-01
2.851901e-01
2.937547e-01
3.068479e-01
3.190284e-01
4.912692e-01
3.338473e-01
3.452982e-01
3.480603e-01
3.591543e-01
3.515688e-01
3.605094e-01
3.722466e-01
2.906946e-01
3.049724e-01
3.216006e-01
3.374471e-01
3.384695e-01
3.385898e-01
3.442524e-01
3.517002e-01
3.641446e-01
3.745454e-01
3.808147e-01
3.877997e-01
2.913877e-01
3.063824e-01
3.199957e-01
3.398528e-01
3.499532e-01
3.596933e-01
3.705299e-01
3.669772e-01
3.753937e-01
3.769081e-01
3.859307e-01
3.944626e-01
4.052142e-01
3.504323e-01
3.595858e-01
3.719113e-01
3.861921e-01
4.885891e-01
4.832527e-01
4.818410e-01
4.780442e-01
3.972408e-01
4.065465e-01
4.175242e-01
3.568469e-01
3.799505e-01
3.900614e-01
3.986268e-01
4.085853e-01
4.176047e-01
4.284542e-01
3.684439e-01
3.775180e-01
3.889931e-01
3.918563e-01
4.020470e-01
4.114537e-01
4.855859e-01
4.797459e-01
4.763246e-01
4.727200e-01
4.710804e-01
4.181542e-01
4.270521e-01
4.381293e-01
4.013530e-01
4.140490e-01
4.255267e-01
4.355048e-01
4.472488e-01
3.749553e-01
3.855325e-01
3.947889e-01
4.060922e-01
4.238702e-01
4.355491e-01
4.447831e-01
4.557018e-01
4.151086e-01
4.255732e-01
4.340093e-01
4.445784e-01
4.529265e-01
4.630637e-01
4.604651e-01
4.636148e-01
3.905235e-01
4.003267e-01
4.089405e-01
4.185285e-01
4.265822e-01
4.351454e-01
4.419434e-01
4.523958e-01
4.594708e-01
4.695368e-01
4.532199e-01
4.561174e-01
4.814110e-01
4.756721e-01
4.725958e-01
4.672956e-01
4.659210e-01
4.629282e-01
4.597150e-01
4.563415e-01
4.602316e-01
4.633236e-01
4.676245e-01
4.701985e-01
4.760751e-01
2.772000e-01
4.998221e-01
4.985529e-01
4.964404e-01
4.940463e-01
4.899036e-01
4.850588e-01
4.785751e-01
4.697677e-01
4.591824e-01
4.485021e-01
4.385726e-01
4.278669e-01
4.168692e-01
4.049912e-01
3.944152e-01
3.857194e-01
3.770109e-01
3.667721e-01
3.557983e-01
3.446976e-01
3.335291e-01
3.221224e-01
3.105847e-01
2.987025e-01
2.872629e-01
5.000000e-01
4.328106e-01
4.391547e-01
4.447666e-01
4.518608e-01
4.578429e-01
4.648394e-01
4.719684e-01
4.797909e-01
4.866600e-01
4.936181e-01
4.272000e-01
2.863846e-01
2.953900e-01
3.075303e-01
3.287393e-01
3.409163e-01
3.522173e-01
3.633743e-01
3.728397e-01
3.805481e-01
3.852683e-01
3.920830e-01
3.984904e-01
4.034019e-01
4.071522e-01
4.102305e-01
4.150282e-01
4.186424e-01
4.205887e-01
4.228092e-01
4.250511e-01
4.267204e-01
2.772000e-01
2.772000e-01
2.772000e-01
2.772000e-01
2.772000e-01
2.772000e-01
2.772000e-01
2.772000e-01
2.772000e-01
2.772000e-01
2.772000e-01
4.431330e-01
4.560794e-01
3.048702e-01
3.327320e-01
3.215488e-01
4.263848e-01
4.268892e-01
4.368742e-01
4.326032e-01
4.461564e-01
4.440995e-01
4.494221e-01
4.347410e-01
4.605472e-01
2.887633e-01
4.577214e-01
4.467027e-01
4.572357e-01
4.388671e-01
4.512753e-01
4.452813e-01
4.588805e-01
4.527695e-01
2.902042e-01
3.450043e-01
3.059050e-01
3.012523e-01
2.925141e-01
3.342211e-01
3.548743e-01
3.162373e-01
3.494998e-01
3.305065e-01
3.527089e-01
3.393372e-01
3.596533e-01
3.660339e-01
2.978771e-01
4.316355e-01
2.896455e-01
2.993074e-01
3.170161e-01
4.254171e-01
4.322796e-01
4.377895e-01
4.924705e-01
4.843896e-01
4.890636e-01
4.891431e-01
4.733452e-01
4.774049e-01
4.793397e-01
4.817579e-01
3.125168e-01
3.040281e-01
2.901479e-01
4.845883e-01
4.718043e-01
4.731894e-01
4.755217e-01
4.809165e-01
4.671113e-01
4.682290e-01
4.733413e-01
4.765651e-01
4.207044e-01
4.228662e-01
4.270629e-01
4.543479e-01
4.602711e-01
4.680692e-01
4.529914e-01
4.610449e-01
4.630307e-01
4.659328e-01
4.657558e-01
4.662168e-01
4.681228e-01
4.142990e-01
4.294477e-01
4.364657e-01
4.451157e-01
4.497476e-01
4.530500e-01
4.571083e-01
4.149464e-01
4.156128e-01
4.187018e-01
4.365924e-01
4.419241e-01
3.243423e-01
3.154974e-01
4.436452e-01
4.471826e-01
4.039377e-01
4.199574e-01
4.223695e-01
4.293982e-01
4.332132e-01
4.339960e-01
4.370903e-01
4.046055e-01
4.041911e-01
4.058914e-01
4.194256e-01
4.233462e-01
4.240785e-01
4.267634e-01
4.040899e-01
3.349231e-01
3.248072e-01
3.147752e-01
3.018772e-01
2.888931e-01
4.047736e-01
4.109644e-01
4.137043e-01
4.134167e-01
4.158447e-01
3.892873e-01
3.900661e-01
3.876293e-01
3.899853e-01
4.004168e-01
4.022628e-01
4.022495e-01
4.046325e-01
3.877934e-01
3.890342e-01
3.875079e-01
3.909231e-01
3.917390e-01
3.931020e-01
2.915919e-01
3.042248e-01
3.222834e-01
3.334771e-01
3.442387e-01
3.560638e-01
3.673869e-01
3.697848e-01
3.680192e-01
3.745341e-01
3.754991e-01
3.709607e-01
3.744473e-01
3.754762e-01
3.816864e-01
3.795125e-01
3.795268e-01
3.459158e-01
3.358835e-01
3.266384e-01
3.154601e-01
3.037057e-01
2.896505e-01
3.483241e-01
3.573784e-01
3.674742e-01
3.296862e-01
3.384115e-01
3.470194e-01
3.569147e-01
5.000000e-01
5.000000e-01
5.000000e-01
5.000000e-01
5.000000e-01
5.000000e-01
5.000000e-01
5.000000e-01
5.000000e-01
5.000000e-01
5.000000e-01
5.000000e-01
5.000000e-01
5.000000e-01
5.000000e-01
5.000000e-01
5.000000e-01
5.000000e-01
5.000000e-01
5.000000e-01
5.000000e-01
5.000000e-01
5.000000e-01
5.000000e-01
5.000000e-01
5.000000e-01
5.000000e-01
5.000000e-01
5.000000e-01
5.000000e-01
5.000000e-01
5.000000e-01
5.000000e-01
2.772000e-01
2.772000e-01
2.772000e-01
2.772000e-01
2.772000e-01
2.772000e-01
2.772000e-01
2.772000e-01
2.772000e-01
2.772000e-01
2.772000e-01
2.772000e-01
2.772000e-01
2.772000e-01
2.772000e-01
2.772000e-01
2.772000e-01
2.772000e-01
2.772000e-01
2.772000e-01
2.772000e-01
2.772000e-01
2.772000e-01
2.772000e-01
2.772000e-01
2.772000e-01
2.772000e-01
2.772000e-01
2.772000e-01
2.772000e-01
2.772000e-01
2.772000e-01
2.772000e-01
4.131488e-01
4.201837e-01
4.170349e-01
4.239273e-01
4.311434e-01
4.458058e-01
4.344687e-01
4.392913e-01
3.886609e-01
3.953233e-01
4.001538e-01
4.016315e-01
4.063857e-01
4.100776e-01
4.144796e-01
4.303876e-01
4.190905e-01
4.134283e-01
4.242290e-01
4.348700e-01
4.076731e-01
4.077038e-01
2.959846e-01
2.885218e-01
4.172898e-01
4.280217e-01
4.386965e-01
4.266852e-01
4.337614e-01
4.409938e-01
4.362136e-01
4.427909e-01
4.452085e-01
4.592855e-01
4.369431e-01
4.448392e-01
4.334260e-01
4.485154e-01
4.388040e-01
4.284315e-01
4.520022e-01
4.429794e-01
4.341216e-01
4.250599e-01
4.515659e-01
4.584549e-01
4.559466e-01
4.492859e-01
4.434624e-01
3.108384e-01
3.015980e-01
2.910718e-01
4.221126e-01
4.284728e-01
4.339760e-01
4.170930e-01
4.235115e-01
4.122762e-01
2.885682e-01
2.969146e-01
2.988923e-01
3.071372e-01
3.095189e-01
3.159301e-01
3.181015e-01
3.205051e-01
3.209349e-01
3.261265e-01
3.291165e-01
3.317282e-01
3.324153e-01
3.370265e-01
3.402918e-01
3.430876e-01
3.392076e-01
3.440976e-01
3.482826e-01
3.515902e-01
3.544977e-01
3.470482e-01
3.513993e-01
3.558225e-01
3.597143e-01
3.629278e-01
3.658650e-01
3.543937e-01
3.241516e-01
3.153357e-01
3.057490e-01
2.957102e-01
2.891475e-01
3.590314e-01
3.633754e-01
3.675225e-01
3.712002e-01
3.741875e-01
3.770825e-01
3.660221e-01
3.709640e-01
3.751746e-01
3.791436e-01
3.826909e-01
3.852060e-01
3.880311e-01
3.721696e-01
3.779117e-01
3.829340e-01
3.867294e-01
3.906385e-01
3.942557e-01
3.956810e-01
3.986207e-01
3.782539e-01
3.840916e-01
3.898344e-01
3.950375e-01
3.977845e-01
4.020026e-01
4.063263e-01
4.048845e-01
4.091511e-01
4.165193e-01
4.427716e-01
4.034556e-01
4.132573e-01
4.237081e-01
3.372178e-01
3.289876e-01
3.200344e-01
3.109094e-01
3.027308e-01
2.944763e-01
4.340636e-01
3.966530e-01
4.075526e-01
4.187958e-01
4.295018e-01
4.390843e-01
4.479437e-01
4.193918e-01
4.253506e-01
4.295008e-01
4.332446e-01
4.365451e-01
4.409116e-01
4.452451e-01
4.492285e-01
4.492217e-01
4.512587e-01
4.535585e-01
4.555006e-01
4.571015e-01
4.591211e-01
4.410537e-01
4.463533e-01
4.509632e-01
4.551600e-01
4.591097e-01
4.624325e-01
4.644243e-01
4.491641e-01
4.514030e-01
4.556692e-01
4.607525e-01
4.642737e-01
4.669509e-01
4.693175e-01
4.577549e-01
4.658743e-01
4.648526e-01
4.704760e-01
4.716384e-01
4.738058e-01
4.763790e-01
4.780938e-01
4.649619e-01
4.737602e-01
4.787770e-01
4.819539e-01
4.718516e-01
4.792170e-01
4.824280e-01
4.851785e-01
4.829786e-01
4.884843e-01
3.504606e-01
3.425233e-01
3.339482e-01
3.251560e-01
3.165472e-01
3.077423e-01
2.974189e-01
2.899531e-01
4.867606e-01
4.916695e-01
4.883677e-01
4.923615e-01
4.963924e-01
4.987929e-01
4.973213e-01
4.954252e-01
4.951743e-01
4.932001e-01
4.922637e-01
4.926244e-01
4.886381e-01
4.890628e-01
4.897044e-01
4.905398e-01
4.843355e-01
4.847352e-01
4.854388e-01
4.863714e-01
4.874644e-01
4.796299e-01
4.803850e-01
4.814101e-01
4.826563e-01
4.840282e-01
4.786439e-01
4.802918e-01
4.737041e-01
4.745321e-01
4.756310e-01
4.770322e-01
4.669813e-01
4.678821e-01
4.690103e-01
4.705463e-01
4.724463e-01
4.744406e-01
4.762572e-01
4.596254e-01
4.604867e-01
4.615389e-01
4.631296e-01
4.653739e-01
4.678496e-01
4.700742e-01
4.716149e-01
4.439687e-01
4.444025e-01
4.524696e-01
4.532627e-01
4.546585e-01
4.573878e-01
4.602950e-01
4.636974e-01
4.643600e-01
4.668862e-01
4.451825e-01
4.527734e-01
4.402286e-01
3.135629e-01
3.316809e-01
3.214412e-01
3.355793e-01
3.308014e-01
3.488211e-01
3.453663e-01
3.402572e-01
3.658356e-01
3.595017e-01
3.639759e-01
3.560311e-01
3.476098e-01
3.389952e-01
3.303473e-01
3.215459e-01
3.123451e-01
3.036854e-01
2.948897e-01
3.547313e-01
3.497472e-01
3.808319e-01
3.742555e-01
3.686931e-01
3.637143e-01
3.588970e-01
3.885256e-01
3.826188e-01
3.774023e-01
3.725538e-01
3.678571e-01
4.021591e-01
3.960862e-01
3.906625e-01
3.857703e-01
3.811322e-01
3.765335e-01
4.148341e-01
4.090240e-01
4.034499e-01
3.985300e-01
3.939815e-01
3.895242e-01
3.849107e-01
4.262606e-01
4.214118e-01
4.155843e-01
4.106889e-01
4.062414e-01
4.020669e-01
3.976327e-01
3.928786e-01
4.357145e-01
4.338573e-01
4.269093e-01
4.222581e-01
4.177701e-01
4.140285e-01
4.100029e-01
4.052137e-01
4.004226e-01
4.633469e-01
4.570102e-01
4.489855e-01
4.399193e-01
4.299008e-01
4.190791e-01
4.076245e-01
4.553254e-01
4.465024e-01
4.366459e-01
4.256029e-01
4.144721e-01
2.888250e-01
2.875978e-01
2.894637e-01
3.009012e-01
2.973248e-01
3.037105e-01
3.130155e-01
2.884228e-01
2.986295e-01
3.079499e-01
3.159955e-01
3.248554e-01
2.889643e-01
2.997809e-01
3.098079e-01
3.191069e-01
3.277608e-01
3.364876e-01
3.777428e-01
3.694756e-01
3.610390e-01
3.525492e-01
3.439956e-01
3.353076e-01
3.264125e-01
3.174957e-01
3.082728e-01
2.980396e-01
2.894208e-01
2.863521e-01
2.916797e-01
3.013134e-01
3.113917e-01
3.211551e-01
3.304438e-01
3.393382e-01
3.479921e-01
2.856956e-01
2.885437e-01
2.972103e-01
3.043820e-01
3.134222e-01
3.230278e-01
3.325575e-01
3.418200e-01
3.508038e-01
3.594748e-01
2.913868e-01
3.001659e-01
3.084615e-01
3.163011e-01
3.252210e-01
3.345677e-01
3.439375e-01
3.531288e-01
3.621329e-01
3.710332e-01
3.809267e-01
2.869744e-01
2.955567e-01
3.033124e-01
3.117618e-01
3.198255e-01
3.277601e-01
3.367674e-01
3.459690e-01
3.552133e-01
3.642931e-01
3.731715e-01
3.819792e-01
3.898153e-01
2.877100e-01
2.973869e-01
3.056651e-01
3.147877e-01
3.233734e-01
3.311908e-01
3.387613e-01
3.481740e-01
3.571627e-01
3.663571e-01
3.752777e-01
3.839656e-01
3.929181e-01
3.994046e-01
2.830774e-01
2.891089e-01
2.981786e-01
3.082805e-01
3.155673e-01
3.266024e-01
3.350990e-01
3.425971e-01
3.489749e-01
3.598523e-01
3.680572e-01
3.773920e-01
3.860559e-01
3.943018e-01
4.045820e-01
4.089213e-01
3.916592e-01
3.827575e-01
3.741573e-01
3.657960e-01
3.574161e-01
3.488955e-01
3.401783e-01
3.312697e-01
3.220663e-01
3.123534e-01
3.024603e-01
2.911860e-01
4.994335e-01
4.998039e-01
4.980780e-01
4.990897e-01
4.997526e-01
4.960870e-01
4.976983e-01
4.989125e-01
4.997079e-01
4.910169e-01
4.935138e-01
4.956423e-01
4.974073e-01
4.987725e-01
4.996704e-01
4.811042e-01
4.867757e-01
4.901628e-01
4.928818e-01
4.951972e-01
4.971292e-01
4.986341e-01
4.996318e-01
4.829236e-01
4.862969e-01
4.894256e-01
4.922528e-01
4.947324e-01
4.968232e-01
4.984667e-01
4.995759e-01
4.744983e-01
4.780029e-01
4.816265e-01
4.852249e-01
4.885489e-01
4.915515e-01
4.941934e-01
4.964289e-01
4.981997e-01
4.994317e-01
4.997615e-01
4.669224e-01
4.718555e-01
4.761749e-01
4.802568e-01
4.840751e-01
4.875804e-01
4.907399e-01
4.935140e-01
4.958470e-01
4.976591e-01
4.988573e-01
4.996878e-01
4.526236e-01
4.593122e-01
4.649844e-01
4.699681e-01
4.745614e-01
4.788551e-01
4.828384e-01
4.864858e-01
4.897689e-01
4.926495e-01
4.950843e-01
4.970457e-01
4.985842e-01
4.996213e-01
4.348001e-01
4.440050e-01
4.513419e-01
4.576614e-01
4.631397e-01
4.681893e-01
4.052084e-01
3.956583e-01
3.867755e-01
3.786478e-01
3.705391e-01
3.622561e-01
3.537381e-01
3.449656e-01
3.358776e-01
3.264242e-01
3.166148e-01
3.062876e-01
2.957587e-01
4.729309e-01
4.773628e-01
4.814629e-01
4.852164e-01
4.886021e-01
4.915966e-01
4.942097e-01
4.964665e-01
4.983229e-01
4.995602e-01
2.883078e-01
2.996069e-01
3.109923e-01
3.224851e-01
3.340651e-01
3.456941e-01
3.573084e-01
3.688381e-01
3.802100e-01
3.913716e-01
4.023205e-01
4.130406e-01
4.234506e-01
4.335850e-01
4.432543e-01
4.522676e-01
4.605395e-01
4.684220e-01
4.760479e-01
4.814037e-01
4.865083e-01
4.918136e-01
4.954757e-01
4.982920e-01
4.266556e-01
4.364761e-01
4.433446e-01
4.501317e-01
4.558000e-01
4.611893e-01
4.663441e-01
4.712034e-01
4.757156e-01
4.798871e-01
4.837275e-01
4.871790e-01
4.902714e-01
4.931300e-01
4.956513e-01
4.981867e-01
4.993550e-01
2.889640e-01
3.007413e-01
3.125677e-01
3.244531e-01
3.363777e-01
3.483025e-01
3.601728e-01
3.719266e-01
3.835055e-01
3.948607e-01
4.059483e-01
4.167130e-01
4.270917e-01
4.370230e-01
4.464214e-01
4.552278e-01
4.633981e-01
4.709204e-01
4.776058e-01
4.835065e-01
4.886738e-01
4.931271e-01
4.965967e-01
4.989915e-01
2.895625e-01
3.018635e-01
3.141497e-01
3.264482e-01
3.387397e-01
3.509870e-01
3.631323e-01
3.751154e-01
3.868752e-01
3.983542e-01
4.094949e-01
4.202376e-01
4.305223e-01
4.402913e-01
4.494909e-01
4.580734e-01
4.659905e-01
4.731925e-01
4.796334e-01
4.853123e-01
4.901915e-01
4.942209e-01
4.972911e-01
4.992790e-01
2.901600e-01
3.029769e-01
3.157642e-01
3.285148e-01
3.412110e-01
3.537958e-01
3.662158e-01
3.784068e-01
3.903085e-01
4.177939e-01
4.079430e-01
3.985691e-01
3.909986e-01
3.833008e-01
3.753346e-01
3.670787e-01
3.585123e-01
3.496248e-01
3.403988e-01
3.308331e-01
3.209336e-01
3.106107e-01
2.999028e-01
2.916327e-01
4.018609e-01
4.130069e-01
4.236902e-01
4.338568e-01
4.434569e-01
4.524459e-01
4.607808e-01
4.684207e-01
4.753293e-01
4.814785e-01
4.868405e-01
4.913750e-01
4.950299e-01
4.977399e-01
4.994231e-01
2.906573e-01
3.041063e-01
3.174812e-01
3.307588e-01
3.438790e-01
3.568024e-01
3.694730e-01
3.818370e-01
3.938373e-01
4.054204e-01
4.165349e-01
4.271287e-01
4.371512e-01
4.465575e-01
4.553106e-01
4.633741e-01
4.707148e-01
4.773071e-01
4.831279e-01
4.881477e-01
4.923319e-01
4.956460e-01
4.980517e-01
4.995117e-01
2.913592e-01
3.055309e-01
3.195671e-01
3.333601e-01
3.468826e-01
3.600995e-01
3.729690e-01
3.854517e-01
3.974988e-01
4.090706e-01
4.201229e-01
4.306021e-01
4.404524e-01
4.496305e-01
4.581174e-01
4.658795e-01
4.728928e-01
4.791430e-01
4.846192e-01
4.892910e-01
4.931366e-01
4.961410e-01
4.982909e-01
4.995760e-01
2.925971e-01
3.076201e-01
3.222671e-01
3.364937e-01
3.503499e-01
3.637772e-01
3.767568e-01
3.892771e-01
4.013049e-01
4.128353e-01
4.238128e-01
4.341652e-01
4.438193e-01
4.527159e-01
4.609004e-01
4.683208e-01
4.749807e-01
4.808693e-01
4.859976e-01
4.903177e-01
4.938379e-01
4.965655e-01
4.984946e-01
4.996317e-01
2.940961e-01
3.104662e-01
3.256223e-01
3.402412e-01
3.543835e-01
3.679659e-01
3.808402e-01
3.932589e-01
4.051859e-01
4.167458e-01
4.276530e-01
4.378869e-01
4.473650e-01
4.558654e-01
4.636810e-01
4.706753e-01
4.770286e-01
4.825433e-01
4.873073e-01
4.912299e-01
4.944582e-01
4.969616e-01
4.292640e-01
4.195661e-01
4.089552e-01
4.028156e-01
3.956632e-01
3.880773e-01
3.801452e-01
3.718518e-01
3.632053e-01
3.542351e-01
3.449871e-01
3.353947e-01
3.256913e-01
3.156009e-01
3.063937e-01
2.957818e-01
4.987017e-01
4.996943e-01
2.975132e-01
3.152771e-01
3.295790e-01
3.444852e-01
3.593146e-01
3.730861e-01
3.851743e-01
3.957906e-01
4.091534e-01
4.209967e-01
4.316628e-01
4.417675e-01
4.515465e-01
4.594360e-01
4.660325e-01
4.727711e-01
4.793360e-01
4.844787e-01
4.883247e-01
4.919249e-01
4.949899e-01
4.974243e-01
4.990242e-01
4.997425e-01
4.997532e-01
4.996616e-01
4.989310e-01
4.997690e-01
4.994169e-01
4.985877e-01
4.974698e-01
4.996654e-01
4.989309e-01
4.980606e-01
4.968056e-01
4.953381e-01
4.994763e-01
4.985784e-01
4.973743e-01
4.959865e-01
4.943182e-01
4.924864e-01
4.996754e-01
4.987920e-01
4.980621e-01
4.967163e-01
4.950530e-01
4.931874e-01
4.911052e-01
4.888740e-01
4.845481e-01
4.995612e-01
4.986019e-01
4.972726e-01
4.958973e-01
4.940836e-01
4.919619e-01
4.896428e-01
4.871662e-01
4.796118e-01
4.997729e-01
4.993562e-01
4.982917e-01
4.967894e-01
4.949812e-01
4.930089e-01
4.906888e-01
4.880954e-01
4.853481e-01
4.825123e-01
4.740640e-01
4.996374e-01
4.988810e-01
4.978311e-01
4.962225e-01
4.942054e-01
4.918941e-01
4.893552e-01
4.865279e-01
4.834422e-01
4.802918e-01
4.771518e-01
4.994318e-01
4.984995e-01
4.972005e-01
4.955268e-01
4.933817e-01
4.908531e-01
4.880202e-01
4.849369e-01
4.816020e-01
4.779639e-01
4.744604e-01
4.710757e-01
4.675615e-01
4.597746e-01
4.997078e-01
4.988541e-01
4.980120e-01
4.965897e-01
4.947294e-01
4.924608e-01
4.897743e-01
4.867290e-01
4.833579e-01
4.797419e-01
4.759421e-01
4.715530e-01
4.678489e-01
4.643343e-01
4.309583e-01
4.398121e-01
4.996085e-01
4.987930e-01
4.974909e-01
4.959544e-01
4.939394e-01
4.914838e-01
4.886292e-01
4.854082e-01
4.818506e-01
4.779034e-01
4.737586e-01
4.696891e-01
4.638497e-01
4.605285e-01
4.572714e-01
4.495448e-01
2.772000e-01
2.772000e-01
2.772000e-01
2.772000e-01
2.772000e-01
2.772000e-01
2.772000e-01
2.772000e-01
2.772000e-01
2.772000e-01
2.772000e-01
2.772000e-01
2.772000e-01
2.772000e-01
2.772000e-01
2.772000e-01
2.772000e-01
2.772000e-01
2.772000e-01
2.772000e-01
2.772000e-01
2.772000e-01
2.772000e-01
2.772000e-01
2.772000e-01
2.772000e-01
2.772000e-01
2.772000e-01
2.772000e-01
2.772000e-01
2.772000e-01
2.772000e-01
2.772000e-01
2.772000e-01
2.772000e-01
2.772000e-01
2.772000e-01
2.772000e-01
2.772000e-01
2.772000e-01
2.772000e-01
2.772000e-01
2.772000e-01
2.772000e-01
2.772000e-01
2.772000e-01
2.772000e-01
2.772000e-01
2.772000e-01
2.772000e-01
2.772000e-01
2.772000e-01
2.772000e-01
2.772000e-01
2.772000e-01
2.772000e-01
2.772000e-01
2.772000e-01
2.772000e-01
2.772000e-01
2.772000e-01
2.772000e-01
2.772000e-01
2.772000e-01
2.772000e-01
2.772000e-01
2.772000e-01
2.772000e-01
2.772000e-01
2.772000e-01
2.772000e-01
2.772000e-01
2.772000e-01
2.772000e-01
2.772000e-01
2.772000e-01
2.772000e-01
2.772000e-01
2.772000e-01
2.772000e-01
2.772000e-01
2.772000e-01
2.772000e-01
2.772000e-01
2.772000e-01
2.772000e-01
2.772000e-01
2.772000e-01
2.772000e-01
2.772000e-01
2.772000e-01
2.772000e-01
2.772000e-01
2.772000e-01
2.772000e-01
2.772000e-01
2.772000e-01
2.772000e-01
2.772000e-01
2.772000e-01
2.772000e-01
2.772000e-01
2.772000e-01
2.772000e-01
2.772000e-01
2.772000e-01
2.772000e-01
2.772000e-01
2.772000e-01
2.772000e-01
2.772000e-01
2.772000e-01
2.772000e-01
2.772000e-01
2.772000e-01
2.772000e-01
2.772000e-01
2.772000e-01
2.772000e-01
2.772000e-01
2.772000e-01
2.772000e-01
2.772000e-01
2.772000e-01
2.772000e-01
2.772000e-01
2.772000e-01
2.772000e-01
2.772000e-01
2.772000e-01
2.772000e-01
2.772000e-01
2.772000e-01
2.772000e-01
2.772000e-01
2.772000e-01
2.772000e-01
2.772000e-01
2.772000e-01
2.772000e-01
2.772000e-01
2.772000e-01
2.772000e-01
2.772000e-01
2.772000e-01
2.772000e-01
2.772000e-01
2.772000e-01
2.772000e-01
2.772000e-01
2.772000e-01
2.772000e-01
2.772000e-01
2.772000e-01
2.772000e-01
2.772000e-01
2.772000e-01
2.772000e-01
2.772000e-01
2.772000e-01
2.772000e-01
2.772000e-01
2.772000e-01
2.772000e-01
2.772000e-01
2.772000e-01
2.772000e-01
2.772000e-01
2.772000e-01
2.772000e-01
2.772000e-01
2.772000e-01
2.772000e-01
2.772000e-01
2.772000e-01
2.772000e-01
2.772000e-01
2.772000e-01
2.772000e-01
2.772000e-01
2.772000e-01
2.772000e-01
2.772000e-01
2.772000e-01
2.772000e-01
2.772000e-01
2.772000e-01
2.772000e-01
2.772000e-01
2.772000e-01
2.772000e-01
2.772000e-01
2.772000e-01
2.772000e-01
2.772000e-01
2.772000e-01
2.772000e-01
2.772000e-01
2.772000e-01
2.772000e-01
2.772000e-01
2.772000e-01
2.772000e-01
2.772000e-01
2.772000e-01
2.772000e-01
2.772000e-01
2.772000e-01
2.772000e-01
2.772000e-01
2.772000e-01
2.772000e-01
2.772000e-01
2.772000e-01
2.772000e-01
2.772000e-01
2.772000e-01
2.772000e-01
2.772000e-01
2.772000e-01
2.772000e-01
2.772000e-01
2.772000e-01
2.772000e-01
2.772000e-01
2.772000e-01
2.772000e-01
2.772000e-01
2.772000e-01
2.772000e-01
2.772000e-01
2.772000e-01
2.772000e-01
2.772000e-01
2.772000e-01
2.772000e-01
2.772000e-01
2.772000e-01
2.772000e-01
2.772000e-01
2.772000e-01
2.772000e-01
2.772000e-01
2.772000e-01
2.772000e-01
2.772000e-01
2.772000e-01
2.772000e-01
2.772000e-01
2.772000e-01
2.772000e-01
2.772000e-01
2.772000e-01
2.772000e-01
2.772000e-01
2.772000e-01
2.772000e-01
2.772000e-01
2.772000e-01
2.772000e-01
2.772000e-01
2.772000e-01
2.772000e-01
2.772000e-01
2.772000e-01
2.772000e-01
2.772000e-01
2.772000e-01
2.772000e-01
2.772000e-01
2.772000e-01
2.772000e-01
2.772000e-01
2.772000e-01
2.772000e-01
2.772000e-01
2.772000e-01
2.772000e-01
2.772000e-01
2.772000e-01
2.772000e-01
2.772000e-01
2.772000e-01
2.772000e-01
2.772000e-01
2.772000e-01
2.772000e-01
2.772000e-01
2.772000e-01
2.772000e-01
2.772000e-01
2.772000e-01
2.772000e-01
2.772000e-01
2.772000e-01
2.772000e-01
2.772000e-01
2.772000e-01
2.772000e-01
2.772000e-01
2.772000e-01
2.772000e-01
2.772000e-01
2.772000e-01
2.772000e-01
2.772000e-01
2.772000e-01
2.772000e-01
2.772000e-01
2.772000e-01
2.772000e-01
2.772000e-01
2.772000e-01
2.772000e-01
2.772000e-01
2.772000e-01
2.772000e-01
2.772000e-01
2.772000e-01
2.772000e-01
2.772000e-01
2.772000e-01
2.772000e-01
2.772000e-01
2.772000e-01
2.772000e-01
2.772000e-01
2.772000e-01
2.772000e-01
2.772000e-01
2.772000e-01
2.772000e-01
2.772000e-01
2.772000e-01
2.772000e-01
2.772000e-01
2.772000e-01
2.772000e-01
2.772000e-01
2.772000e-01
2.772000e-01
2.772000e-01
2.772000e-01
2.772000e-01
2.772000e-01
2.772000e-01
2.772000e-01
2.772000e-01
2.772000e-01
2.772000e-01
2.772000e-01
2.772000e-01
2.772000e-01
2.772000e-01
2.772000e-01
2.772000e-01
2.772000e-01
2.772000e-01
2.772000e-01
2.772000e-01
2.772000e-01
2.772000e-01
2.772000e-01
2.772000e-01
2.772000e-01
2.772000e-01
2.772000e-01
2.772000e-01
2.772000e-01
2.772000e-01
4.272000e-01
4.272000e-01
4.272000e-01
4.272000e-01
4.272000e-01
4.272000e-01
4.272000e-01
4.272000e-01
4.272000e-01
4.272000e-01
4.272000e-01
4.272000e-01
4.272000e-01
4.272000e-01
4.272000e-01
4.272000e-01
4.272000e-01
4.272000e-01
4.272000e-01
4.272000e-01
4.272000e-01
4.272000e-01
4.272000e-01
4.272000e-01
4.272000e-01
4.272000e-01
4.272000e-01
4.272000e-01
4.272000e-01
4.272000e-01
4.272000e-01
4.272000e-01
4.272000e-01
3.901433e-01
3.842992e-01
3.991957e-01
3.886336e-01
3.926604e-01
3.811957e-01
3.806463e-01
3.758169e-01
3.720867e-01
3.843598e-01
3.762660e-01
3.701890e-01
3.797209e-01
3.679898e-01
3.756950e-01
3.011914e-01
4.258781e-01
4.238086e-01
4.193560e-01
4.211951e-01
4.197493e-01
4.158784e-01
4.197866e-01
4.171826e-01
4.145086e-01
4.146157e-01
4.113365e-01
4.078363e-01
4.111869e-01
4.077178e-01
4.041548e-01
4.000180e-01
4.244552e-01
4.073159e-01
4.034612e-01
3.994338e-01
3.969657e-01
3.911279e-01
3.880323e-01
3.919061e-01
3.821470e-01
4.037910e-01
3.957964e-01
4.265165e-01
3.862549e-01
3.741984e-01
3.803011e-01
3.747859e-01
3.695747e-01
3.654985e-01
3.632835e-01
3.666808e-01
3.614837e-01
3.571212e-01
3.537938e-01
3.585250e-01
3.518103e-01
3.472605e-01
3.433247e-01
3.395190e-01
3.359420e-01
3.320323e-01
3.241070e-01
3.199653e-01
3.056320e-01
3.500124e-01
3.336533e-01
3.200341e-01
3.094540e-01
2.967060e-01
4.194269e-01
4.160568e-01
4.267080e-01
4.249116e-01
4.259911e-01
4.220389e-01
4.235045e-01
4.202065e-01
4.164082e-01
4.211511e-01
4.234880e-01
4.258902e-01
3.268368e-01
3.153656e-01
2.982886e-01
3.259593e-01
3.098978e-01
2.915532e-01
4.191930e-01
4.158555e-01
4.266017e-01
4.247381e-01
4.258227e-01
4.219107e-01
4.232762e-01
4.199676e-01
4.161748e-01
3.255304e-01
3.145303e-01
2.995740e-01
3.269616e-01
3.103137e-01
2.914318e-01
4.265407e-01
4.245697e-01
4.256460e-01
4.216762e-01
4.229636e-01
4.196844e-01
4.161071e-01
3.274752e-01
3.155704e-01
2.990130e-01
4.264118e-01
4.238290e-01
4.213347e-01
4.193888e-01
4.171530e-01
4.161359e-01
4.100222e-01
3.271341e-01
3.120024e-01
2.922525e-01
3.537471e-01
3.391484e-01
3.238912e-01
3.055866e-01
2.911230e-01
4.194520e-01
4.162081e-01
4.266136e-01
4.247593e-01
4.257825e-01
4.218596e-01
4.232306e-01
4.197990e-01
4.159810e-01
3.287568e-01
3.169060e-01
2.999126e-01
3.264803e-01
3.108017e-01
4.047643e-01
4.140051e-01
4.184310e-01
4.216823e-01
2.916157e-01
4.265016e-01
4.246441e-01
4.219788e-01
3.284657e-01
3.163364e-01
2.986636e-01
4.173627e-01
4.136216e-01
4.262780e-01
4.240001e-01
4.252574e-01
4.208273e-01
4.221210e-01
4.166829e-01
4.180092e-01
4.113358e-01
4.135545e-01
3.484701e-01
3.349198e-01
3.219972e-01
3.092940e-01
2.950283e-01
3.209093e-01
3.061488e-01
2.899607e-01
4.262222e-01
4.237322e-01
4.248280e-01
4.202644e-01
4.217958e-01
4.182078e-01
4.142891e-01
3.925438e-01
3.230991e-01
3.122457e-01
2.966243e-01
4.266741e-01
4.241077e-01
4.206978e-01
4.182004e-01
4.158027e-01
4.145908e-01
4.077573e-01
3.237842e-01
3.088303e-01
2.907853e-01
3.498640e-01
3.357295e-01
3.209532e-01
3.034404e-01
2.898911e-01
4.177494e-01
4.141051e-01
4.263599e-01
4.241258e-01
4.253757e-01
4.208801e-01
4.223391e-01
4.183583e-01
4.140898e-01
3.254114e-01
3.138889e-01
2.976574e-01
3.221582e-01
3.075003e-01
2.900543e-01
4.177265e-01
4.141558e-01
4.263345e-01
3.836523e-01
4.239768e-01
4.252765e-01
4.205994e-01
4.222432e-01
4.184967e-01
4.143787e-01
3.226460e-01
3.111718e-01
2.959548e-01
3.204928e-01
3.059689e-01
2.892986e-01
4.262178e-01
4.236763e-01
4.247810e-01
4.202278e-01
4.212718e-01
4.168023e-01
4.123947e-01
3.212780e-01
3.102527e-01
2.946315e-01
4.258721e-01
4.238664e-01
4.213050e-01
4.154516e-01
4.165248e-01
4.114130e-01
4.085776e-01
3.203845e-01
3.055491e-01
2.888854e-01
3.522519e-01
3.389317e-01
3.185327e-01
3.055685e-01
2.935542e-01
4.259545e-01
4.227429e-01
4.231884e-01
4.030336e-01
4.108643e-01
4.161892e-01
4.196287e-01
4.217771e-01
4.246998e-01
4.184632e-01
4.194279e-01
4.148139e-01
4.101721e-01
3.201977e-01
3.095686e-01
2.949928e-01
4.257549e-01
4.214326e-01
4.150645e-01
4.107590e-01
4.052067e-01
3.207348e-01
3.054872e-01
2.889660e-01
2.938728e-01
4.195279e-01
4.173383e-01
4.133631e-01
4.131307e-01
4.061205e-01
4.046149e-01
4.066840e-01
3.994012e-01
3.913458e-01
3.940499e-01
3.973331e-01
3.993784e-01
3.831012e-01
3.870403e-01
3.907589e-01
3.887567e-01
3.610203e-01
3.524023e-01
3.459270e-01
3.393155e-01
3.314549e-01
3.219715e-01
3.113524e-01
3.031625e-01
2.935334e-01
3.095391e-01
3.148761e-01
3.244948e-01
3.251577e-01
3.411999e-01
3.372226e-01
3.342265e-01
3.509295e-01
3.465202e-01
3.428061e-01
3.502230e-01
3.641322e-01
3.587802e-01
3.542331e-01
3.759103e-01
3.706635e-01
3.652432e-01
3.609812e-01
3.571712e-01
3.815144e-01
3.644699e-01
3.719576e-01
3.748865e-01
4.237686e-01
2.919558e-01
4.258541e-01
4.257400e-01
4.244016e-01
4.218674e-01
4.265716e-01
4.177389e-01
4.159463e-01
4.133599e-01
3.853078e-01
3.919363e-01
4.010056e-01
4.086998e-01
4.142737e-01
4.182635e-01
4.211711e-01
4.240721e-01
4.266884e-01
4.254821e-01
4.233613e-01
4.200694e-01
4.044677e-01
4.264547e-01
4.249162e-01
4.226807e-01
4.193537e-01
4.155437e-01
4.120222e-01
4.085317e-01
4.268387e-01
4.260309e-01
4.238859e-01
4.222457e-01
4.181988e-01
4.140151e-01
4.103110e-01
4.073892e-01
4.015561e-01
3.962567e-01
2.955940e-01
2.875373e-01
3.280275e-01
3.181201e-01
3.065821e-01
2.952356e-01
3.307106e-01
3.136892e-01
3.671429e-01
3.606105e-01
3.507012e-01
3.361722e-01
3.236835e-01
3.119521e-01
3.005361e-01
2.904421e-01
3.513652e-01
3.394752e-01
4.177853e-01
4.123831e-01
4.062879e-01
3.983947e-01
3.887925e-01
3.772224e-01
3.645373e-01
4.266124e-01
4.252885e-01
4.221947e-01
4.175185e-01
4.115311e-01
4.033969e-01
3.946922e-01
3.845334e-01
3.732295e-01
3.637892e-01
3.526522e-01
3.411491e-01
3.288947e-01
3.118381e-01
2.968763e-01
3.792163e-01
3.710983e-01
3.620890e-01
3.515079e-01
3.397785e-01
3.280924e-01
3.163738e-01
3.046735e-01
2.938323e-01
2.893026e-01
4.082145e-01
4.019457e-01
3.932192e-01
3.824290e-01
3.131243e-01
3.079115e-01
2.941139e-01
3.673565e-01
3.535107e-01
3.384912e-01
3.239782e-01
3.087905e-01
2.957778e-01
4.176931e-01
4.123293e-01
4.059841e-01
3.975213e-01
3.877882e-01
3.768070e-01
3.647103e-01
3.507984e-01
3.365121e-01
3.232103e-01
4.264974e-01
4.251544e-01
4.221800e-01
4.181260e-01
4.119980e-01
4.021692e-01
3.928671e-01
3.823030e-01
3.706849e-01
3.597462e-01
4.265304e-01
4.243897e-01
4.213315e-01