VARIABLES = "X" "Y" "Z" "FREF"
ZONE T="instant 041"
STRANDID=0, SOLUTIONTIME=0
Nodes=3151, Elements=6298
ZONETYPE=FETriangle
DATAPACKING=BLOCK
VARLOCATION = ([1-3]=NODAL, [4]=CELLCENTERED)
5.000000e-01
1.459513e-01
1.629387e-01
1.792447e-01
1.950329e-01
2.133997e-01
2.334008e-01
2.548610e-01
2.778212e-01
3.018191e-01
3.260540e-01
3.493071e-01
3.713931e-01
3.925931e-01
4.120511e-01
4.289302e-01
4.429415e-01
4.535286e-01
4.630700e-01
4.727495e-01
4.811140e-01
4.877760e-01
4.927207e-01
4.963084e-01
4.985859e-01
4.997334e-01
1.316000e-01
1.316000e-01
1.316000e-01
1.316000e-01
1.316000e-01
1.316000e-01
1.316000e-01
1.316000e-01
1.316000e-01
1.316000e-01
1.316000e-01
1.316000e-01
2.809237e-01
2.793532e-01
2.758017e-01
2.702180e-01
2.636538e-01
2.584909e-01
2.519615e-01
2.435118e-01
2.351053e-01
2.269212e-01
2.182826e-01
2.082673e-01
1.999276e-01
1.916803e-01
1.838120e-01
1.742530e-01
1.648311e-01
1.576853e-01
1.493912e-01
1.406029e-01
2.816000e-01
4.804675e-01
4.562463e-01
4.353303e-01
4.143759e-01
3.900745e-01
3.662851e-01
3.460242e-01
3.273699e-01
3.093845e-01
2.943168e-01
3.299289e-01
1.683032e-01
1.582458e-01
3.431843e-01
3.213810e-01
1.730001e-01
1.827225e-01
1.650322e-01
1.855807e-01
1.482036e-01
1.864673e-01
1.734871e-01
1.905233e-01
2.029333e-01
4.822235e-01
2.165863e-01
2.345935e-01
2.095291e-01
2.220515e-01
2.731689e-01
2.867279e-01
3.238426e-01
3.031330e-01
3.063226e-01
3.360425e-01
3.527236e-01
3.292520e-01
4.740182e-01
4.612252e-01
3.428696e-01
3.651991e-01
3.577973e-01
3.799953e-01
3.761623e-01
3.884647e-01
2.932351e-01
3.201119e-01
3.060160e-01
2.872900e-01
1.673408e-01
1.532589e-01
1.456336e-01
1.469230e-01
1.464863e-01
1.615283e-01
1.774014e-01
1.469581e-01
1.620535e-01
1.781040e-01
1.952774e-01
1.400878e-01
1.503172e-01
1.636395e-01
1.791779e-01
4.782205e-01
1.957074e-01
2.140735e-01
2.140994e-01
2.338785e-01
2.160625e-01
2.329166e-01
2.543271e-01
1.469876e-01
1.629730e-01
1.796309e-01
1.972881e-01
1.938121e-01
1.913205e-01
2.009516e-01
2.099732e-01
2.305071e-01
2.473534e-01
2.590803e-01
2.753790e-01
1.450195e-01
1.602283e-01
1.772592e-01
1.965248e-01
2.133933e-01
2.291723e-01
2.485439e-01
2.321717e-01
2.455507e-01
2.505663e-01
2.657805e-01
2.822336e-01
3.023442e-01
2.086225e-01
2.224216e-01
2.370875e-01
2.670505e-01
4.712540e-01
4.579389e-01
4.472475e-01
4.347116e-01
2.852874e-01
3.043055e-01
3.257601e-01
2.161460e-01
2.520571e-01
2.688561e-01
2.877501e-01
3.054592e-01
3.253501e-01
3.475155e-01
2.302163e-01
2.457622e-01
2.630480e-01
2.719713e-01
2.904018e-01
3.118536e-01
4.638308e-01
4.484415e-01
4.349385e-01
4.222250e-01
4.080183e-01
3.247039e-01
3.447870e-01
3.677416e-01
2.876304e-01
3.097958e-01
3.382252e-01
3.620619e-01
3.864585e-01
2.359497e-01
2.509936e-01
2.679588e-01
2.872564e-01
3.325009e-01
3.560082e-01
3.797372e-01
4.039970e-01
3.082922e-01
3.298108e-01
3.513765e-01
3.740752e-01
3.966978e-01
4.201218e-01
4.030494e-01
4.195008e-01
2.540055e-01
2.698088e-01
2.879055e-01
3.080618e-01
3.296927e-01
3.507260e-01
3.689435e-01
3.925504e-01
4.125215e-01
4.354584e-01
3.539881e-01
3.637679e-01
4.553709e-01
4.392747e-01
4.248822e-01
4.114681e-01
3.984740e-01
3.857065e-01
3.721166e-01
3.754017e-01
3.882994e-01
4.015508e-01
4.142971e-01
4.294146e-01
4.458652e-01
1.316000e-01
4.996258e-01
4.976205e-01
4.941162e-01
4.891224e-01
4.811869e-01
4.718588e-01
4.600235e-01
4.455509e-01
4.271671e-01
4.076708e-01
3.897518e-01
3.701320e-01
3.487080e-01
3.264387e-01
3.074333e-01
2.913098e-01
2.751564e-01
2.572995e-01
2.385451e-01
2.201924e-01
2.025598e-01
1.857464e-01
1.701519e-01
1.558130e-01
1.428988e-01
5.000000e-01
2.943243e-01
3.100614e-01
3.283951e-01
3.494557e-01
3.702927e-01
3.908431e-01
4.125307e-01
4.368247e-01
4.617441e-01
4.833742e-01
2.816000e-01
1.402175e-01
1.487853e-01
1.591211e-01
1.707063e-01
1.809935e-01
1.909020e-01
2.009313e-01
2.109060e-01
2.198259e-01
2.266478e-01
2.354289e-01
2.434715e-01
2.499256e-01
2.552830e-01
2.602108e-01
2.667835e-01
2.717855e-01
2.745671e-01
2.771036e-01
2.794541e-01
2.811009e-01
1.316000e-01
1.316000e-01
1.316000e-01
1.316000e-01
1.316000e-01
1.316000e-01
1.316000e-01
1.316000e-01
1.316000e-01
1.316000e-01
1.316000e-01
3.281999e-01
3.641173e-01
1.656180e-01
1.942468e-01
1.870193e-01
2.913227e-01
2.990067e-01
3.133644e-01
3.129396e-01
3.366036e-01
3.366364e-01
3.458993e-01
3.265794e-01
3.976859e-01
1.443710e-01
3.779015e-01
3.540546e-01
3.839097e-01
3.369873e-01
3.716271e-01
3.558947e-01
3.921962e-01
3.764345e-01
1.487210e-01
1.915958e-01
1.685402e-01
1.584527e-01
1.473966e-01
1.873932e-01
2.143235e-01
1.811762e-01
2.155574e-01
2.022063e-01
2.280084e-01
2.141275e-01
2.397273e-01
2.542260e-01
1.533274e-01
2.954357e-01
1.474594e-01
1.566824e-01
1.715999e-01
2.855960e-01
3.006129e-01
3.149041e-01
4.761126e-01
4.514518e-01
4.647614e-01
4.738375e-01
4.172612e-01
4.284930e-01
4.391984e-01
4.500098e-01
1.730267e-01
1.611149e-01
1.460153e-01
4.639749e-01
4.143556e-01
4.247642e-01
4.359178e-01
4.561915e-01
4.005025e-01
4.049345e-01
4.342973e-01
4.452399e-01
2.842002e-01
2.934314e-01
3.043676e-01
3.819516e-01
3.998105e-01
4.255381e-01
3.585882e-01
3.817567e-01
3.896696e-01
4.001230e-01
4.087248e-01
4.141527e-01
4.195683e-01
2.702802e-01
3.171034e-01
3.358481e-01
3.613334e-01
3.752550e-01
3.936068e-01
4.118126e-01
2.741068e-01
2.822668e-01
2.926163e-01
3.497229e-01
3.665015e-01
1.890429e-01
1.769074e-01
3.817462e-01
3.959066e-01
2.549433e-01
3.058863e-01
3.204176e-01
3.432930e-01
3.547233e-01
3.672126e-01
3.788300e-01
2.596114e-01
2.674398e-01
2.771953e-01
3.282660e-01
3.406900e-01
3.509989e-01
3.608821e-01
2.881149e-01
2.052807e-01
1.908261e-01
1.755588e-01
1.608335e-01
1.467479e-01
2.977656e-01
3.175821e-01
3.248979e-01
3.334466e-01
3.417841e-01
2.354915e-01
2.411926e-01
2.497137e-01
2.594492e-01
2.995849e-01
3.072204e-01
3.153193e-01
3.220924e-01
2.672367e-01
2.735938e-01
2.813621e-01
2.903660e-01
2.977080e-01
3.021902e-01
1.484086e-01
1.654535e-01
1.866527e-01
2.048523e-01
2.229838e-01
2.413070e-01
2.598976e-01
2.133894e-01
2.182564e-01
2.354025e-01
2.397585e-01
2.458582e-01
2.549302e-01
2.652185e-01
2.767321e-01
2.784775e-01
2.809921e-01
2.225643e-01
2.071370e-01
1.922828e-01
1.782107e-01
1.639043e-01
1.480022e-01
2.273425e-01
2.423389e-01
2.593422e-01
1.976431e-01
2.101166e-01
2.245600e-01
2.406793e-01
5.000000e-01
5.000000e-01
5.000000e-01
5.000000e-01
5.000000e-01
5.000000e-01
5.000000e-01
5.000000e-01
5.000000e-01
5.000000e-01
5.000000e-01
5.000000e-01
5.000000e-01
5.000000e-01
5.000000e-01
5.000000e-01
5.000000e-01
5.000000e-01
5.000000e-01
5.000000e-01
5.000000e-01
5.000000e-01
5.000000e-01
5.000000e-01
5.000000e-01
5.000000e-01
5.000000e-01
5.000000e-01
5.000000e-01
5.000000e-01
5.000000e-01
5.000000e-01
5.000000e-01
1.316000e-01
1.316000e-01
1.316000e-01
1.316000e-01
1.316000e-01
1.316000e-01
1.316000e-01
1.316000e-01
1.316000e-01
1.316000e-01
1.316000e-01
1.316000e-01
1.316000e-01
1.316000e-01
1.316000e-01
1.316000e-01
1.316000e-01
1.316000e-01
1.316000e-01
1.316000e-01
1.316000e-01
1.316000e-01
1.316000e-01
1.316000e-01
1.316000e-01
1.316000e-01
1.316000e-01
1.316000e-01
1.316000e-01
1.316000e-01
1.316000e-01
1.316000e-01
1.316000e-01
3.367946e-01
3.499941e-01
3.447177e-01
3.574295e-01
3.707406e-01
3.945496e-01
3.712561e-01
3.811211e-01
2.930076e-01
3.043507e-01
3.143449e-01
3.151655e-01
3.247440e-01
3.322387e-01
3.386074e-01
3.683774e-01
3.474334e-01
3.361990e-01
3.564836e-01
3.767001e-01
3.262087e-01
3.261142e-01
1.509165e-01
1.429788e-01
3.437699e-01
3.640414e-01
3.843648e-01
3.635550e-01
3.766163e-01
3.898941e-01
3.822457e-01
3.943068e-01
3.994683e-01
4.226120e-01
3.783890e-01
3.931699e-01
3.709184e-01
4.005739e-01
3.813046e-01
3.614045e-01
4.072165e-01
3.885583e-01
3.714723e-01
3.538976e-01
4.050579e-01
4.192231e-01
4.156148e-01
4.010772e-01
3.894359e-01
1.676068e-01
1.570185e-01
1.455984e-01
3.465840e-01
3.593850e-01
3.702581e-01
3.368812e-01
3.490914e-01
3.270073e-01
1.435289e-01
1.525353e-01
1.549570e-01
1.649354e-01
1.680510e-01
1.762011e-01
1.791656e-01
1.826343e-01
1.833194e-01
1.903340e-01
1.946835e-01
1.986792e-01
1.997465e-01
2.063256e-01
2.113503e-01
2.158438e-01
2.100661e-01
2.173559e-01
2.236981e-01
2.290517e-01
2.339121e-01
2.219707e-01
2.289285e-01
2.358664e-01
2.420992e-01
2.475820e-01
2.526569e-01
2.335537e-01
1.845164e-01
1.730702e-01
1.615892e-01
1.504131e-01
1.439356e-01
2.410405e-01
2.482857e-01
2.551053e-01
2.612624e-01
2.666691e-01
2.717811e-01
2.525892e-01
2.607915e-01
2.681625e-01
2.748919e-01
2.809848e-01
2.859491e-01
2.909149e-01
2.636419e-01
2.728177e-01
2.813010e-01
2.883923e-01
2.950277e-01
3.013100e-01
3.047434e-01
3.096560e-01
2.744609e-01
2.841465e-01
2.937163e-01
3.026711e-01
3.083561e-01
3.153488e-01
3.235868e-01
3.211319e-01
3.285558e-01
3.463022e-01
3.959437e-01
3.205511e-01
3.386473e-01
3.591532e-01
2.023620e-01
1.905204e-01
1.787689e-01
1.676087e-01
1.583607e-01
1.489656e-01
3.799742e-01
3.080141e-01
3.275766e-01
3.487112e-01
3.701613e-01
3.885853e-01
4.050066e-01
3.474682e-01
3.595494e-01
3.661584e-01
3.736990e-01
3.801707e-01
3.881699e-01
3.965292e-01
4.051507e-01
4.062066e-01
4.104211e-01
4.150869e-01
4.174938e-01
4.209773e-01
4.251088e-01
3.880229e-01
3.983878e-01
4.069697e-01
4.155069e-01
4.238781e-01
4.303346e-01
4.345809e-01
4.036948e-01
4.082174e-01
4.158317e-01
4.252223e-01
4.329423e-01
4.385780e-01
4.432852e-01
4.198779e-01
4.348196e-01
4.327251e-01
4.441119e-01
4.471583e-01
4.514215e-01
4.556746e-01
4.591818e-01
4.333816e-01
4.499618e-01
4.599409e-01
4.659952e-01
4.462307e-01
4.605338e-01
4.668743e-01
4.720170e-01
4.680025e-01
4.782254e-01
2.215593e-01
2.092516e-01
1.970277e-01
1.853347e-01
1.745826e-01
1.640172e-01
1.521827e-01
1.448266e-01
4.749957e-01
4.839620e-01
4.777322e-01
4.850563e-01
4.927650e-01
4.978812e-01
4.951840e-01
4.916360e-01
4.911754e-01
4.873633e-01
4.856543e-01
4.864070e-01
4.787997e-01
4.796989e-01
4.808344e-01
4.822204e-01
4.707192e-01
4.715138e-01
4.727930e-01
4.743937e-01
4.762249e-01
4.617488e-01
4.631755e-01
4.650173e-01
4.671550e-01
4.694693e-01
4.592629e-01
4.620740e-01
4.501114e-01
4.518961e-01
4.540112e-01
4.565129e-01
4.369429e-01
4.389365e-01
4.412767e-01
4.441729e-01
4.475116e-01
4.509211e-01
4.541028e-01
4.228518e-01
4.244613e-01
4.267342e-01
4.299261e-01
4.339795e-01
4.384678e-01
4.422643e-01
4.453033e-01
3.920646e-01
3.931525e-01
4.087411e-01
4.104114e-01
4.134039e-01
4.183681e-01
4.239639e-01
4.304936e-01
4.316769e-01
4.358896e-01
3.906686e-01
4.053770e-01
3.799150e-01
1.763593e-01
2.012129e-01
1.866991e-01
2.063282e-01
1.986150e-01
2.263606e-01
2.202891e-01
2.119777e-01
2.529513e-01
2.426384e-01
2.420252e-01
2.290614e-01
2.163385e-01
2.040779e-01
1.923587e-01
1.810163e-01
1.696892e-01
1.598255e-01
1.498254e-01
2.340333e-01
2.254383e-01
2.771842e-01
2.667041e-01
2.568309e-01
2.476512e-01
2.388418e-01
2.910005e-01
2.803258e-01
2.704507e-01
2.611279e-01
2.521785e-01
3.151406e-01
3.038985e-01
2.935271e-01
2.838072e-01
2.745118e-01
2.654744e-01
3.382939e-01
3.270629e-01
3.164216e-01
3.064998e-01
2.970681e-01
2.878616e-01
2.787247e-01
3.594632e-01
3.496036e-01
3.387129e-01
3.287671e-01
3.194403e-01
3.103748e-01
3.011849e-01
2.918575e-01
3.767537e-01
3.730526e-01
3.599449e-01
3.502183e-01
3.410993e-01
3.326309e-01
3.237988e-01
3.143226e-01
3.047211e-01
4.279092e-01
4.151823e-01
3.993209e-01
3.813014e-01
3.609002e-01
3.391384e-01
3.171234e-01
4.108199e-01
3.938005e-01
3.742059e-01
3.507103e-01
3.287468e-01
1.446648e-01
1.425879e-01
1.452188e-01
1.586732e-01
1.536840e-01
1.619643e-01
1.740293e-01
1.438302e-01
1.552317e-01
1.668721e-01
1.778201e-01
1.902911e-01
1.446786e-01
1.569631e-01
1.693411e-01
1.817026e-01
1.942917e-01
2.075135e-01
2.636236e-01
2.498161e-01
2.365253e-01
2.237719e-01
2.114575e-01
1.994643e-01
1.877087e-01
1.765557e-01
1.654551e-01
1.533854e-01
1.449843e-01
1.413945e-01
1.478200e-01
1.590873e-01
1.716873e-01
1.846451e-01
1.979928e-01
2.116437e-01
2.255822e-01
1.404932e-01
1.435746e-01
1.536216e-01
1.628124e-01
1.744786e-01
1.874489e-01
2.011676e-01
2.152792e-01
2.297774e-01
2.445710e-01
1.468033e-01
1.568827e-01
1.673850e-01
1.780747e-01
1.905109e-01
2.041869e-01
2.185136e-01
2.332681e-01
2.485044e-01
2.647765e-01
2.822485e-01
1.419164e-01
1.513046e-01
1.606661e-01
1.713677e-01
1.823145e-01
1.938663e-01
2.072112e-01
2.215674e-01
2.364295e-01
2.516749e-01
2.672393e-01
2.832472e-01
2.977232e-01
1.425545e-01
1.533320e-01
1.633312e-01
1.751231e-01
1.869404e-01
1.983055e-01
2.099019e-01
2.244681e-01
2.394040e-01
2.547255e-01
2.703290e-01
2.859523e-01
3.021416e-01
3.151515e-01
1.373856e-01
1.440168e-01
1.542924e-01
1.666471e-01
1.759430e-01
1.913878e-01
2.037664e-01
2.151661e-01
2.252950e-01
2.428575e-01
2.573838e-01
2.733480e-01
2.891513e-01
3.043038e-01
3.232453e-01
3.327281e-01
2.860938e-01
2.712634e-01
2.573769e-01
2.442386e-01
2.315222e-01
2.190715e-01
2.068250e-01
1.948264e-01
1.829848e-01
1.710929e-01
1.600080e-01
1.473347e-01
4.990248e-01
4.996602e-01
4.967145e-01
4.984335e-01
4.995706e-01
4.930869e-01
4.959684e-01
4.980950e-01
4.994896e-01
4.837066e-01
4.883585e-01
4.922386e-01
4.953976e-01
4.978233e-01
4.994174e-01
4.655255e-01
4.759492e-01
4.822423e-01
4.872153e-01
4.913928e-01
4.948551e-01
4.975486e-01
4.993379e-01
4.690948e-01
4.752028e-01
4.809151e-01
4.860334e-01
4.904917e-01
4.942459e-01
4.972087e-01
4.992250e-01
4.538810e-01
4.603902e-01
4.668380e-01
4.733055e-01
4.792889e-01
4.846826e-01
4.894277e-01
4.934608e-01
4.966912e-01
4.989951e-01
4.995777e-01
4.403732e-01
4.492720e-01
4.570051e-01
4.642906e-01
4.711312e-01
4.774129e-01
4.830830e-01
4.880873e-01
4.923428e-01
4.957057e-01
4.979501e-01
4.994280e-01
4.147542e-01
4.263903e-01
4.366656e-01
4.456526e-01
4.538874e-01
4.615710e-01
4.686999e-01
4.752387e-01
4.811499e-01
4.863842e-01
4.908716e-01
4.945238e-01
4.973588e-01
4.992801e-01
3.821358e-01
3.987773e-01
4.119012e-01
4.231646e-01
4.330563e-01
4.421631e-01
3.090870e-01
2.930262e-01
2.784937e-01
2.652193e-01
2.523293e-01
2.395915e-01
2.269666e-01
2.144577e-01
2.020250e-01
1.896189e-01
1.774983e-01
1.650102e-01
1.528582e-01
4.506669e-01
4.585940e-01
4.659398e-01
4.726866e-01
4.788001e-01
4.842721e-01
4.891071e-01
4.932836e-01
4.967834e-01
4.991046e-01
1.434733e-01
1.561826e-01
1.703231e-01
1.856896e-01
2.023877e-01
2.200983e-01
2.386086e-01
2.576991e-01
2.771116e-01
2.966146e-01
3.161416e-01
3.356327e-01
3.549017e-01
3.741157e-01
3.924261e-01
4.094211e-01
4.249426e-01
4.397610e-01
4.547156e-01
4.647364e-01
4.740203e-01
4.840731e-01
4.910737e-01
4.963329e-01
3.668063e-01
3.849470e-01
3.972886e-01
4.092618e-01
4.194793e-01
4.292265e-01
4.384954e-01
4.471785e-01
4.552526e-01
4.627666e-01
4.696652e-01
4.758950e-01
4.816182e-01
4.869008e-01
4.915122e-01
4.963931e-01
4.985981e-01
1.442790e-01
1.577400e-01
1.726173e-01
1.886978e-01
2.060463e-01
2.243408e-01
2.433681e-01
2.629194e-01
2.827734e-01
3.027504e-01
3.226965e-01
3.424351e-01
3.617950e-01
3.805305e-01
3.983053e-01
4.149527e-01
4.304285e-01
4.447837e-01
4.574436e-01
4.684258e-01
4.781383e-01
4.865702e-01
4.931810e-01
4.979105e-01
1.450834e-01
1.593302e-01
1.749447e-01
1.917529e-01
2.097883e-01
2.287147e-01
2.483112e-01
2.683671e-01
2.886656e-01
3.090062e-01
3.291882e-01
3.490046e-01
3.682389e-01
3.866642e-01
4.040851e-01
4.203684e-01
4.354080e-01
4.490602e-01
4.612008e-01
4.718834e-01
4.810994e-01
4.887553e-01
4.946563e-01
4.985581e-01
1.459217e-01
1.609474e-01
1.773503e-01
1.949496e-01
2.137300e-01
2.333265e-01
2.535049e-01
2.740464e-01
2.947261e-01
3.322851e-01
3.147918e-01
2.991270e-01
2.863478e-01
2.736379e-01
2.608324e-01
2.479784e-01
2.351272e-01
2.222972e-01
2.094690e-01
1.966631e-01
1.838626e-01
1.709780e-01
1.573834e-01
1.481819e-01
3.153274e-01
3.356346e-01
3.554306e-01
3.744991e-01
3.926419e-01
4.096977e-01
4.255380e-01
4.400484e-01
4.531368e-01
4.647605e-01
4.748965e-01
4.834854e-01
4.904404e-01
4.956304e-01
4.988824e-01
1.466949e-01
1.626182e-01
1.799474e-01
1.984366e-01
2.180103e-01
2.382813e-01
2.590109e-01
2.799783e-01
3.009582e-01
3.217351e-01
3.420960e-01
3.618210e-01
3.806913e-01
3.985164e-01
4.151549e-01
4.304972e-01
4.444542e-01
4.569672e-01
4.680019e-01
4.775138e-01
4.854458e-01
4.917359e-01
4.963067e-01
4.990779e-01
1.476104e-01
1.646170e-01
1.829863e-01
2.024286e-01
2.227917e-01
2.436899e-01
2.648923e-01
2.861913e-01
3.073778e-01
3.282654e-01
3.486455e-01
3.682684e-01
3.868984e-01
4.043417e-01
4.204957e-01
4.352821e-01
4.486460e-01
4.605453e-01
4.709490e-01
4.798053e-01
4.870862e-01
4.927699e-01
4.968190e-01
4.992181e-01
1.489763e-01
1.672480e-01
1.867554e-01
2.071478e-01
2.282302e-01
2.496689e-01
2.711958e-01
2.926705e-01
3.139555e-01
3.349680e-01
3.553819e-01
3.748652e-01
3.932116e-01
4.101769e-01
4.257486e-01
4.398880e-01
4.526455e-01
4.639200e-01
4.736613e-01
4.818259e-01
4.884850e-01
4.936459e-01
4.972556e-01
4.993398e-01
1.508467e-01
1.708315e-01
1.916011e-01
2.126972e-01
2.345017e-01
2.564271e-01
2.778905e-01
2.991743e-01
3.205691e-01
3.420590e-01
3.624309e-01
3.816614e-01
3.997976e-01
4.161174e-01
4.308650e-01
4.441757e-01
4.565764e-01
4.672303e-01
4.761772e-01
4.835422e-01
4.896864e-01
4.944669e-01
3.551778e-01
3.375220e-01
3.175978e-01
3.072737e-01
2.952397e-01
2.825962e-01
2.696760e-01
2.566259e-01
2.435260e-01
2.304060e-01
2.172569e-01
2.040596e-01
1.908837e-01
1.779679e-01
1.665614e-01
1.542893e-01
4.977017e-01
4.994696e-01
1.549676e-01
1.773410e-01
1.968704e-01
2.189781e-01
2.421471e-01
2.646666e-01
2.846330e-01
3.029531e-01
3.281498e-01
3.500554e-01
3.697505e-01
3.883869e-01
4.075039e-01
4.226174e-01
4.348304e-01
4.478839e-01
4.611661e-01
4.709119e-01
4.779909e-01
4.848305e-01
4.906968e-01
4.954373e-01
4.983142e-01
4.995685e-01
4.995312e-01
4.992916e-01
4.979379e-01
4.995593e-01
4.987610e-01
4.971433e-01
4.950599e-01
4.992902e-01
4.979169e-01
4.960722e-01
4.936331e-01
4.908077e-01
4.987210e-01
4.970432e-01
4.947780e-01
4.919855e-01
4.887123e-01
4.850826e-01
4.993495e-01
4.974877e-01
4.958620e-01
4.933337e-01
4.901576e-01
4.864545e-01
4.823187e-01
4.778044e-01
4.690677e-01
4.991096e-01
4.972021e-01
4.946273e-01
4.917495e-01
4.882032e-01
4.840667e-01
4.794438e-01
4.744344e-01
4.591641e-01
4.995399e-01
4.986233e-01
4.965623e-01
4.936654e-01
4.901814e-01
4.861876e-01
4.816015e-01
4.764793e-01
4.709332e-01
4.651119e-01
4.481371e-01
4.992887e-01
4.978252e-01
4.956580e-01
4.925474e-01
4.886745e-01
4.841858e-01
4.791211e-01
4.734890e-01
4.673582e-01
4.608994e-01
4.543892e-01
4.988102e-01
4.970887e-01
4.945906e-01
4.912661e-01
4.870976e-01
4.822026e-01
4.766707e-01
4.705387e-01
4.638389e-01
4.566294e-01
4.492555e-01
4.421816e-01
4.353072e-01
4.199982e-01
4.994633e-01
4.978305e-01
4.961826e-01
4.934978e-01
4.899030e-01
4.854484e-01
4.802009e-01
4.742541e-01
4.676624e-01
4.604512e-01
4.526475e-01
4.440482e-01
4.358375e-01
4.285875e-01
3.618224e-01
3.768577e-01
4.992841e-01
4.978090e-01
4.954122e-01
4.924421e-01
4.885645e-01
4.837913e-01
4.781899e-01
4.718534e-01
4.648591e-01
4.571991e-01
4.489002e-01
4.401245e-01
4.282297e-01
4.209719e-01
4.148016e-01
3.988738e-01
1.316000e-01
1.316000e-01
1.316000e-01
1.316000e-01
1.316000e-01
1.316000e-01
1.316000e-01
1.316000e-01
1.316000e-01
1.316000e-01
1.316000e-01
1.316000e-01
1.316000e-01
1.316000e-01
1.316000e-01
1.316000e-01
1.316000e-01
1.316000e-01
1.316000e-01
1.316000e-01
1.316000e-01
1.316000e-01
1.316000e-01
1.316000e-01
1.316000e-01
1.316000e-01
1.316000e-01
1.316000e-01
1.316000e-01
1.316000e-01
1.316000e-01
1.316000e-01
1.316000e-01
1.316000e-01
1.316000e-01
1.316000e-01
1.316000e-01
1.316000e-01
1.316000e-01
1.316000e-01
1.316000e-01
1.316000e-01
1.316000e-01
1.316000e-01
1.316000e-01
1.316000e-01
1.316000e-01
1.316000e-01
1.316000e-01
1.316000e-01
1.316000e-01
1.316000e-01
1.316000e-01
1.316000e-01
1.316000e-01
1.316000e-01
1.316000e-01
1.316000e-01
1.316000e-01
1.316000e-01
1.316000e-01
1.316000e-01
1.316000e-01
1.316000e-01
1.316000e-01
1.316000e-01
1.316000e-01
1.316000e-01
1.316000e-01
1.316000e-01
1.316000e-01
1.316000e-01
1.316000e-01
1.316000e-01
1.316000e-01
1.316000e-01
1.316000e-01
1.316000e-01
1.316000e-01
1.316000e-01
1.316000e-01
1.316000e-01
1.316000e-01
1.316000e-01
1.316000e-01
1.316000e-01
1.316000e-01
1.316000e-01
1.316000e-01
1.316000e-01
1.316000e-01
1.316000e-01
1.316000e-01
1.316000e-01
1.316000e-01
1.316000e-01
1.316000e-01
1.316000e-01
1.316000e-01
1.316000e-01
1.316000e-01
1.316000e-01
1.316000e-01
1.316000e-01
1.316000e-01
1.316000e-01
1.316000e-01
1.316000e-01
1.316000e-01
1.316000e-01
1.316000e-01
1.316000e-01
1.316000e-01
1.316000e-01
1.316000e-01
1.316000e-01
1.316000e-01
1.316000e-01
1.316000e-01
1.316000e-01
1.316000e-01
1.316000e-01
1.316000e-01
1.316000e-01
1.316000e-01
1.316000e-01
1.316000e-01
1.316000e-01
1.316000e-01
1.316000e-01
1.316000e-01
1.316000e-01
1.316000e-01
1.316000e-01
1.316000e-01
1.316000e-01
1.316000e-01
1.316000e-01
1.316000e-01
1.316000e-01
1.316000e-01
1.316000e-01
1.316000e-01
1.316000e-01
1.316000e-01
1.316000e-01
1.316000e-01
1.316000e-01
1.316000e-01
1.316000e-01
1.316000e-01
1.316000e-01
1.316000e-01
1.316000e-01
1.316000e-01
1.316000e-01
1.316000e-01
1.316000e-01
1.316000e-01
1.316000e-01
1.316000e-01
1.316000e-01
1.316000e-01
1.316000e-01
1.316000e-01
1.316000e-01
1.316000e-01
1.316000e-01
1.316000e-01
1.316000e-01
1.316000e-01
1.316000e-01
1.316000e-01
1.316000e-01
1.316000e-01
1.316000e-01
1.316000e-01
1.316000e-01
1.316000e-01
1.316000e-01
1.316000e-01
1.316000e-01
1.316000e-01
1.316000e-01
1.316000e-01
1.316000e-01
1.316000e-01
1.316000e-01
1.316000e-01
1.316000e-01
1.316000e-01
1.316000e-01
1.316000e-01
1.316000e-01
1.316000e-01
1.316000e-01
1.316000e-01
1.316000e-01
1.316000e-01
1.316000e-01
1.316000e-01
1.316000e-01
1.316000e-01
1.316000e-01
1.316000e-01
1.316000e-01
1.316000e-01
1.316000e-01
1.316000e-01
1.316000e-01
1.316000e-01
1.316000e-01
1.316000e-01
1.316000e-01
1.316000e-01
1.316000e-01
1.316000e-01
1.316000e-01
1.316000e-01
1.316000e-01
1.316000e-01
1.316000e-01
1.316000e-01
1.316000e-01
1.316000e-01
1.316000e-01
1.316000e-01
1.316000e-01
1.316000e-01
1.316000e-01
1.316000e-01
1.316000e-01
1.316000e-01
1.316000e-01
1.316000e-01
1.316000e-01
1.316000e-01
1.316000e-01
1.316000e-01
1.316000e-01
1.316000e-01
1.316000e-01
1.316000e-01
1.316000e-01
1.316000e-01
1.316000e-01
1.316000e-01
1.316000e-01
1.316000e-01
1.316000e-01
1.316000e-01
1.316000e-01
1.316000e-01
1.316000e-01
1.316000e-01
1.316000e-01
1.316000e-01
1.316000e-01
1.316000e-01
1.316000e-01
1.316000e-01
1.316000e-01
1.316000e-01
1.316000e-01
1.316000e-01
1.316000e-01
1.316000e-01
1.316000e-01
1.316000e-01
1.316000e-01
1.316000e-01
1.316000e-01
1.316000e-01
1.316000e-01
1.316000e-01
1.316000e-01
1.316000e-01
1.316000e-01
1.316000e-01
1.316000e-01
1.316000e-01
1.316000e-01
1.316000e-01
1.316000e-01
1.316000e-01
1.316000e-01
1.316000e-01
1.316000e-01
1.316000e-01
1.316000e-01
1.316000e-01
1.316000e-01
1.316000e-01
1.316000e-01
1.316000e-01
1.316000e-01
1.316000e-01
1.316000e-01
1.316000e-01
1.316000e-01
1.316000e-01
1.316000e-01
1.316000e-01
1.316000e-01
1.316000e-01
1.316000e-01
1.316000e-01
1.316000e-01
1.316000e-01
1.316000e-01
1.316000e-01
1.316000e-01
1.316000e-01
1.316000e-01
1.316000e-01
1.316000e-01
1.316000e-01
1.316000e-01
1.316000e-01
1.316000e-01
1.316000e-01
1.316000e-01
1.316000e-01
1.316000e-01
1.316000e-01
1.316000e-01
1.316000e-01
1.316000e-01
1.316000e-01
1.316000e-01
1.316000e-01
1.316000e-01
1.316000e-01
1.316000e-01
1.316000e-01
1.316000e-01
1.316000e-01
1.316000e-01
1.316000e-01
1.316000e-01
1.316000e-01
1.316000e-01
1.316000e-01
1.316000e-01
1.316000e-01
1.316000e-01
1.316000e-01
1.316000e-01
1.316000e-01
1.316000e-01
1.316000e-01
1.316000e-01
1.316000e-01
1.316000e-01
1.316000e-01
1.316000e-01
1.316000e-01
1.316000e-01
1.316000e-01
1.316000e-01
1.316000e-01
1.316000e-01
1.316000e-01
1.316000e-01
1.316000e-01
1.316000e-01
1.316000e-01
1.316000e-01
1.316000e-01
1.316000e-01
2.816000e-01
2.816000e-01
2.816000e-01
2.816000e-01
2.816000e-01
2.816000e-01
2.816000e-01
2.816000e-01
2.816000e-01
2.816000e-01
2.816000e-01
2.816000e-01
2.816000e-01
2.816000e-01
2.816000e-01
2.816000e-01
2.816000e-01
2.816000e-01
2.816000e-01
2.816000e-01
2.816000e-01
2.816000e-01
2.816000e-01
2.816000e-01
2.816000e-01
2.816000e-01
2.816000e-01
2.816000e-01
2.816000e-01
2.816000e-01
2.816000e-01
2.816000e-01
2.816000e-01
2.329068e-01
2.257270e-01
2.441009e-01
2.300995e-01
2.358146e-01
2.218813e-01
2.213062e-01
2.153630e-01
2.110120e-01
2.329574e-01
2.263251e-01
2.203694e-01
2.313845e-01
2.190060e-01
2.284175e-01
1.489969e-01
2.797324e-01
2.767576e-01
2.700541e-01
2.731472e-01
2.709094e-01
2.649343e-01
2.712879e-01
2.674187e-01
2.634219e-01
2.641231e-01
2.593279e-01
2.543297e-01
2.597809e-01
2.547080e-01
2.497075e-01
2.440008e-01
2.776937e-01
2.547977e-01
2.492982e-01
2.436731e-01
2.401754e-01
2.327398e-01
2.301486e-01
2.350565e-01
2.228283e-01
2.502215e-01
2.399032e-01
2.804785e-01
2.279373e-01
2.136809e-01
2.203029e-01
2.144380e-01
2.083384e-01
2.034885e-01
2.011434e-01
2.056447e-01
1.996792e-01
1.949523e-01
1.913739e-01
1.963609e-01
1.891305e-01
1.855440e-01
1.818025e-01
1.783083e-01
1.755026e-01
1.722572e-01
1.652406e-01
1.627289e-01
1.523464e-01
1.891808e-01
1.739820e-01
1.619380e-01
1.522648e-01
1.417872e-01
2.698910e-01
2.647800e-01
2.808353e-01
2.781476e-01
2.796751e-01
2.739291e-01
2.760170e-01
2.711141e-01
2.653697e-01
2.737189e-01
2.771835e-01
2.801268e-01
1.673747e-01
1.558455e-01
1.428524e-01
1.667865e-01
1.528391e-01
1.397770e-01
2.695565e-01
2.644422e-01
2.807332e-01
2.779288e-01
2.795115e-01
2.736680e-01
2.757535e-01
2.707540e-01
2.649347e-01
1.667925e-01
1.555501e-01
1.428670e-01
1.673881e-01
1.532493e-01
1.399121e-01
2.806593e-01
2.777220e-01
2.792599e-01
2.733602e-01
2.753295e-01
2.703716e-01
2.648871e-01
1.679562e-01
1.562059e-01
1.428858e-01
2.804212e-01
2.766606e-01
2.728537e-01
2.700240e-01
2.665273e-01
2.650441e-01
2.563937e-01
1.672357e-01
1.540641e-01
1.406694e-01
1.923061e-01
1.790497e-01
1.655114e-01
1.506561e-01
1.397205e-01
2.704826e-01
2.655946e-01
2.807799e-01
2.780543e-01
2.795842e-01
2.738042e-01
2.759280e-01
2.708595e-01
2.651354e-01
1.697164e-01
1.577217e-01
1.440794e-01
1.674192e-01
1.537585e-01
2.602015e-01
2.670607e-01
2.719192e-01
2.758596e-01
1.402725e-01
2.807240e-01
2.780777e-01
2.742623e-01
1.694687e-01
1.576576e-01
1.432388e-01
2.679522e-01
2.624347e-01
2.804466e-01
2.773120e-01
2.790873e-01
2.727554e-01
2.747241e-01
2.666749e-01
2.688113e-01
2.590849e-01
2.622878e-01
1.880006e-01
1.756011e-01
1.632660e-01
1.521306e-01
1.410228e-01
1.639785e-01
1.509418e-01
1.391182e-01
2.804310e-01
2.770494e-01
2.786254e-01
2.721865e-01
2.743943e-01
2.693017e-01
2.635515e-01
2.488649e-01
1.653474e-01
1.549344e-01
1.421087e-01
2.809601e-01
2.775654e-01
2.728200e-01
2.694132e-01
2.658278e-01
2.641791e-01
2.550337e-01
1.666661e-01
1.530530e-01
1.401993e-01
1.907549e-01
1.778104e-01
1.646625e-01
1.501438e-01
1.394591e-01
2.691061e-01
2.638708e-01
2.805845e-01
2.776263e-01
2.793377e-01
2.732533e-01
2.753287e-01
2.698591e-01
2.638020e-01
1.684719e-01
1.567865e-01
1.435794e-01
1.655736e-01
1.525935e-01
1.397608e-01
2.695242e-01
2.644025e-01
2.806088e-01
2.397324e-01
2.775968e-01
2.793572e-01
2.731168e-01
2.754807e-01
2.703947e-01
2.644856e-01
1.668424e-01
1.552695e-01
1.423840e-01
1.646209e-01
1.519240e-01
1.394783e-01
2.805799e-01
2.774973e-01
2.790227e-01
2.730808e-01
2.746661e-01
2.688195e-01
2.628044e-01
1.655103e-01
1.548662e-01
1.420327e-01
2.804304e-01
2.780599e-01
2.748298e-01
2.681899e-01
2.688064e-01
2.628163e-01
2.584083e-01
1.655447e-01
1.522210e-01
1.396990e-01
1.946622e-01
1.816413e-01
1.652275e-01
1.526753e-01
1.416607e-01
2.805271e-01
2.771532e-01
2.782386e-01
2.575788e-01
2.645167e-01
2.699133e-01
2.740554e-01
2.767127e-01
2.798127e-01
2.722259e-01
2.738186e-01
2.682159e-01
2.622546e-01
1.654202e-01
1.544658e-01
1.424003e-01
2.806410e-01
2.763446e-01
2.691173e-01
2.636852e-01
2.566674e-01
1.660969e-01
1.527982e-01
1.398053e-01
1.425780e-01
2.742911e-01
2.716917e-01
2.670383e-01
2.666514e-01
2.589810e-01
2.574908e-01
2.599678e-01
2.510814e-01
2.414327e-01
2.454150e-01
2.499636e-01
2.526128e-01
2.325043e-01
2.382234e-01
2.431608e-01
2.422571e-01
2.143871e-01
2.036844e-01
1.954027e-01
1.871285e-01
1.781017e-01
1.678206e-01
1.578065e-01
1.512125e-01
1.426276e-01
1.568397e-01
1.618347e-01
1.708627e-01
1.716384e-01
1.864740e-01
1.831600e-01
1.804844e-01
1.969008e-01
1.930465e-01
1.899226e-01
1.986611e-01
2.105708e-01
2.058836e-01
2.019165e-01
2.231930e-01
2.188335e-01
2.138571e-01
2.100856e-01
2.072653e-01
2.356395e-01
2.162491e-01
2.251151e-01
2.295731e-01
2.786830e-01
1.417471e-01
2.801940e-01
2.798958e-01
2.783307e-01
2.759233e-01
2.809293e-01
2.702676e-01
2.674856e-01
2.641383e-01
2.405224e-01
2.470586e-01
2.550372e-01
2.621755e-01
2.680349e-01
2.726323e-01
2.762258e-01
2.793118e-01
2.809350e-01
2.794067e-01
2.767564e-01
2.729402e-01
2.512693e-01
2.806356e-01
2.785705e-01
2.756339e-01
2.714184e-01
2.665546e-01
2.618932e-01
2.572080e-01
2.811555e-01
2.800236e-01
2.770496e-01
2.748605e-01
2.693815e-01
2.640558e-01
2.592165e-01
2.553014e-01
2.473825e-01
2.406501e-01
1.472701e-01
1.397012e-01
1.689543e-01
1.609076e-01
1.506107e-01
1.425258e-01
1.720808e-01
1.590066e-01
2.052909e-01
1.987569e-01
1.888319e-01
1.757870e-01
1.649788e-01
1.555468e-01
1.467836e-01
1.402234e-01
1.898175e-01
1.793457e-01
2.676090e-01
2.599440e-01
2.516480e-01
2.413650e-01
2.295716e-01
2.164905e-01
2.028751e-01
2.807691e-01
2.787660e-01
2.742931e-01
2.674864e-01
2.589374e-01
2.481577e-01
2.369830e-01
2.249543e-01
2.127049e-01
2.022099e-01
1.902751e-01
1.800918e-01
1.687075e-01
1.553469e-01
1.442561e-01
2.185625e-01
2.102589e-01
2.004078e-01
1.891341e-01
1.784909e-01
1.687304e-01
1.596163e-01
1.513666e-01
1.430341e-01
1.398743e-01
2.541490e-01
2.457185e-01
2.347095e-01
2.218550e-01
1.592316e-01
1.536895e-01
1.435064e-01
2.058610e-01
1.922373e-01
1.787080e-01
1.648053e-01
1.519975e-01
1.418512e-01
2.672561e-01
2.594907e-01
2.508397e-01
2.399570e-01
2.280547e-01
2.154361e-01
2.023755e-01
1.888532e-01
1.767628e-01
1.639175e-01
2.805552e-01
2.785107e-01
2.740556e-01
2.679148e-01
2.589774e-01
2.460925e-01
2.342711e-01
2.218001e-01
2.091396e-01
1.974660e-01
2.805476e-01
2.773248e-01
2.728059e-01