VARIABLES = "X" "Y" "Z" "FREF"
ZONE T="instant 087"
STRANDID=0, SOLUTIONTIME=0
Nodes=3151, Elements=6298
ZONETYPE=FETriangle
DATAPACKING=BLOCK
VARLOCATION = ([1-3]=NODAL, [4]=CELLCENTERED)
5.000000e-01
2.662422e-01
2.857203e-01
3.008641e-01
3.132043e-01
3.278866e-01
3.429100e-01
3.581207e-01
3.743480e-01
3.913404e-01
4.070731e-01
4.204020e-01
4.323709e-01
4.432859e-01
4.532057e-01
4.619031e-01
4.691954e-01
4.746762e-01
4.796872e-01
4.849851e-01
4.896084e-01
4.932466e-01
4.959087e-01
4.978635e-01
4.991555e-01
4.998442e-01
2.512000e-01
2.512000e-01
2.512000e-01
2.512000e-01
2.512000e-01
2.512000e-01
2.512000e-01
2.512000e-01
2.512000e-01
2.512000e-01
2.512000e-01
2.512000e-01
4.007447e-01
3.997146e-01
3.965142e-01
3.911759e-01
3.834092e-01
3.782760e-01
3.718115e-01
3.631298e-01
3.554880e-01
3.480397e-01
3.398154e-01
3.299832e-01
3.220855e-01
3.147544e-01
3.079801e-01
2.992150e-01
2.902392e-01
2.840217e-01
2.752461e-01
2.637245e-01
4.012000e-01
4.907902e-01
4.811639e-01
4.720120e-01
4.631480e-01
4.534693e-01
4.439844e-01
4.346181e-01
4.255268e-01
4.167353e-01
4.086100e-01
4.213182e-01
2.930587e-01
2.812935e-01
4.313397e-01
4.151386e-01
3.003239e-01
3.098102e-01
2.919275e-01
3.099190e-01
2.700744e-01
3.118284e-01
2.977843e-01
3.143053e-01
3.250082e-01
4.913773e-01
3.365464e-01
3.490294e-01
3.311085e-01
3.396289e-01
3.858715e-01
3.929483e-01
4.231933e-01
4.077383e-01
4.043920e-01
4.297013e-01
4.341227e-01
4.183989e-01
4.872651e-01
4.819627e-01
4.274245e-01
4.371534e-01
4.311910e-01
4.447122e-01
4.372871e-01
4.460030e-01
4.078178e-01
4.217377e-01
4.143699e-01
4.011997e-01
2.929735e-01
2.785682e-01
2.638791e-01
2.681189e-01
2.674732e-01
2.837840e-01
2.979888e-01
2.688295e-01
2.833172e-01
2.992417e-01
3.135162e-01
2.602644e-01
2.702929e-01
2.849510e-01
2.992805e-01
4.893650e-01
3.154446e-01
3.289014e-01
3.312031e-01
3.443345e-01
3.344699e-01
3.453392e-01
3.589520e-01
2.664677e-01
2.830978e-01
3.013781e-01
3.188020e-01
3.159111e-01
3.162173e-01
3.234715e-01
3.318890e-01
3.468880e-01
3.589043e-01
3.666051e-01
3.753530e-01
2.672029e-01
2.837493e-01
2.993532e-01
3.203945e-01
3.324220e-01
3.436953e-01
3.563775e-01
3.486099e-01
3.583054e-01
3.610654e-01
3.714658e-01
3.817923e-01
3.941000e-01
3.291721e-01
3.398858e-01
3.529370e-01
3.713345e-01
4.860914e-01
4.794136e-01
4.766049e-01
4.711491e-01
3.838041e-01
3.951020e-01
4.077297e-01
3.352191e-01
3.627245e-01
3.742933e-01
3.848159e-01
3.962708e-01
4.073342e-01
4.198996e-01
3.478569e-01
3.584434e-01
3.714291e-01
3.757469e-01
3.877161e-01
3.989406e-01
4.825071e-01
4.751270e-01
4.702993e-01
4.649910e-01
4.615896e-01
4.071120e-01
4.178846e-01
4.306675e-01
3.855977e-01
4.001788e-01
4.149083e-01
4.270264e-01
4.405868e-01
3.534659e-01
3.653866e-01
3.761606e-01
3.891102e-01
4.118634e-01
4.255308e-01
4.369662e-01
4.498450e-01
3.998950e-01
4.124063e-01
4.228314e-01
4.353833e-01
4.459683e-01
4.580458e-01
4.517856e-01
4.578358e-01
3.690061e-01
3.802849e-01
3.905614e-01
4.023617e-01
4.124351e-01
4.232471e-01
4.320598e-01
4.442314e-01
4.536772e-01
4.653576e-01
4.374442e-01
4.419565e-01
4.777778e-01
4.703770e-01
4.656203e-01
4.588329e-01
4.559668e-01
4.510286e-01
4.461580e-01
4.436859e-01
4.495333e-01
4.538556e-01
4.595564e-01
4.644559e-01
4.720284e-01
2.512000e-01
4.997920e-01
4.984321e-01
4.961742e-01
4.934055e-01
4.887739e-01
4.833502e-01
4.761635e-01
4.667424e-01
4.552994e-01
4.435556e-01
4.326693e-01
4.208756e-01
4.086533e-01
3.954807e-01
3.837907e-01
3.740448e-01
3.642218e-01
3.528299e-01
3.405480e-01
3.280142e-01
3.153255e-01
3.023040e-01
2.891078e-01
2.756080e-01
2.626003e-01
5.000000e-01
4.086057e-01
4.171394e-01
4.251914e-01
4.348896e-01
4.435187e-01
4.527776e-01
4.625857e-01
4.730634e-01
4.825716e-01
4.917622e-01
4.012000e-01
2.609961e-01
2.706190e-01
2.831702e-01
3.010085e-01
3.128903e-01
3.238891e-01
3.346632e-01
3.442890e-01
3.521853e-01
3.574771e-01
3.647069e-01
3.713859e-01
3.764850e-01
3.804287e-01
3.839292e-01
3.890385e-01
3.928417e-01
3.949345e-01
3.970663e-01
3.991791e-01
4.007425e-01
2.512000e-01
2.512000e-01
2.512000e-01
2.512000e-01
2.512000e-01
2.512000e-01
2.512000e-01
2.512000e-01
2.512000e-01
2.512000e-01
2.512000e-01
4.249348e-01
4.421030e-01
2.823049e-01
3.108080e-01
3.003795e-01
4.045299e-01
4.067339e-01
4.174784e-01
4.146949e-01
4.284189e-01
4.275353e-01
4.330169e-01
4.183882e-01
4.518121e-01
2.642882e-01
4.454856e-01
4.328188e-01
4.460548e-01
4.240955e-01
4.395286e-01
4.322791e-01
4.494506e-01
4.420719e-01
2.660951e-01
3.189606e-01
2.838802e-01
2.784244e-01
2.682257e-01
3.099311e-01
3.322142e-01
2.952313e-01
3.286909e-01
3.111848e-01
3.338243e-01
3.209374e-01
3.421347e-01
3.502975e-01
2.742785e-01
4.083923e-01
2.653843e-01
2.758064e-01
2.935574e-01
4.017585e-01
4.108275e-01
4.172162e-01
4.899368e-01
4.794832e-01
4.855752e-01
4.867664e-01
4.647035e-01
4.699765e-01
4.733493e-01
4.770348e-01
2.913400e-01
2.812153e-01
2.659829e-01
4.816130e-01
4.631168e-01
4.659011e-01
4.696835e-01
4.776490e-01
4.565513e-01
4.584514e-01
4.680815e-01
4.725326e-01
3.988457e-01
4.024255e-01
4.087008e-01
4.442677e-01
4.523587e-01
4.626469e-01
4.379365e-01
4.484206e-01
4.515474e-01
4.562401e-01
4.576119e-01
4.589110e-01
4.617728e-01
3.899705e-01
4.124709e-01
4.219670e-01
4.330741e-01
4.394206e-01
4.452382e-01
4.513456e-01
3.923155e-01
3.943331e-01
3.998358e-01
4.241054e-01
4.316684e-01
3.046528e-01
2.946948e-01
4.354692e-01
4.406132e-01
3.786822e-01
4.026252e-01
4.077670e-01
4.170852e-01
4.224988e-01
4.251373e-01
4.296025e-01
3.813522e-01
3.822190e-01
3.864687e-01
4.063342e-01
4.120770e-01
4.143161e-01
4.182636e-01
3.863827e-01
3.166872e-01
3.053437e-01
2.933802e-01
2.792056e-01
2.643237e-01
3.893263e-01
3.975637e-01
4.014367e-01
4.026680e-01
4.062596e-01
3.631289e-01
3.660101e-01
3.653516e-01
3.701459e-01
3.857494e-01
3.889743e-01
3.905738e-01
3.939579e-01
3.690548e-01
3.718403e-01
3.719226e-01
3.767332e-01
3.791462e-01
3.812880e-01
2.671870e-01
2.818966e-01
3.016187e-01
3.146644e-01
3.269958e-01
3.401971e-01
3.530461e-01
3.428713e-01
3.436946e-01
3.518675e-01
3.542898e-01
3.513778e-01
3.564519e-01
3.594871e-01
3.669553e-01
3.659562e-01
3.667123e-01
3.290702e-01
3.177744e-01
3.067676e-01
2.944335e-01
2.809043e-01
2.654944e-01
3.315305e-01
3.419815e-01
3.533120e-01
3.103763e-01
3.200456e-01
3.302703e-01
3.414215e-01
5.000000e-01
5.000000e-01
5.000000e-01
5.000000e-01
5.000000e-01
5.000000e-01
5.000000e-01
5.000000e-01
5.000000e-01
5.000000e-01
5.000000e-01
5.000000e-01
5.000000e-01
5.000000e-01
5.000000e-01
5.000000e-01
5.000000e-01
5.000000e-01
5.000000e-01
5.000000e-01
5.000000e-01
5.000000e-01
5.000000e-01
5.000000e-01
5.000000e-01
5.000000e-01
5.000000e-01
5.000000e-01
5.000000e-01
5.000000e-01
5.000000e-01
5.000000e-01
5.000000e-01
2.512000e-01
2.512000e-01
2.512000e-01
2.512000e-01
2.512000e-01
2.512000e-01
2.512000e-01
2.512000e-01
2.512000e-01
2.512000e-01
2.512000e-01
2.512000e-01
2.512000e-01
2.512000e-01
2.512000e-01
2.512000e-01
2.512000e-01
2.512000e-01
2.512000e-01
2.512000e-01
2.512000e-01
2.512000e-01
2.512000e-01
2.512000e-01
2.512000e-01
2.512000e-01
2.512000e-01
2.512000e-01
2.512000e-01
2.512000e-01
2.512000e-01
2.512000e-01
2.512000e-01
4.034729e-01
4.112434e-01
4.079145e-01
4.154792e-01
4.234202e-01
4.403902e-01
4.277594e-01
4.332126e-01
3.765286e-01
3.837825e-01
3.893281e-01
3.906554e-01
3.960749e-01
4.002950e-01
4.048916e-01
4.224796e-01
4.099865e-01
4.036171e-01
4.156022e-01
4.274196e-01
3.973055e-01
3.973236e-01
2.727843e-01
2.641901e-01
4.079416e-01
4.198571e-01
4.317170e-01
4.186785e-01
4.264491e-01
4.343998e-01
4.293049e-01
4.365236e-01
4.393018e-01
4.545547e-01
4.304761e-01
4.392097e-01
4.265988e-01
4.433584e-01
4.326205e-01
4.211532e-01
4.472106e-01
4.371898e-01
4.274032e-01
4.173606e-01
4.467932e-01
4.544154e-01
4.516528e-01
4.442796e-01
4.378661e-01
2.896393e-01
2.790720e-01
2.670845e-01
4.140388e-01
4.212082e-01
4.273539e-01
4.085614e-01
4.157279e-01
4.032326e-01
2.639420e-01
2.734423e-01
2.756603e-01
2.850184e-01
2.877004e-01
2.950091e-01
2.974108e-01
3.001128e-01
3.006975e-01
3.064519e-01
3.098059e-01
3.127459e-01
3.135606e-01
3.186704e-01
3.223369e-01
3.254869e-01
3.211846e-01
3.266248e-01
3.312619e-01
3.349734e-01
3.382468e-01
3.299545e-01
3.348037e-01
3.396985e-01
3.440111e-01
3.476253e-01
3.509292e-01
3.381862e-01
3.048460e-01
2.947572e-01
2.839007e-01
2.725773e-01
2.648197e-01
3.433007e-01
3.481310e-01
3.527134e-01
3.567902e-01
3.601704e-01
3.634200e-01
3.511106e-01
3.565515e-01
3.612427e-01
3.656184e-01
3.695469e-01
3.724350e-01
3.755874e-01
3.580883e-01
3.643195e-01
3.698255e-01
3.740811e-01
3.783673e-01
3.823711e-01
3.840851e-01
3.873253e-01
3.649427e-01
3.713081e-01
3.775500e-01
3.832401e-01
3.863609e-01
3.909575e-01
3.958158e-01
3.942738e-01
3.989830e-01
4.078442e-01
4.367906e-01
3.931176e-01
4.039824e-01
4.156398e-01
3.196512e-01
3.102492e-01
3.001132e-01
2.897865e-01
2.803586e-01
2.710775e-01
4.272109e-01
3.855127e-01
3.975502e-01
4.100070e-01
4.219742e-01
4.326198e-01
4.424195e-01
4.103295e-01
4.169932e-01
4.215140e-01
4.256979e-01
4.293635e-01
4.341383e-01
4.389473e-01
4.434803e-01
4.436031e-01
4.459332e-01
4.485575e-01
4.505042e-01
4.523495e-01
4.546539e-01
4.343362e-01
4.402003e-01
4.452658e-01
4.499778e-01
4.544665e-01
4.581891e-01
4.604718e-01
4.433758e-01
4.458552e-01
4.505130e-01
4.561164e-01
4.601330e-01
4.631773e-01
4.658453e-01
4.529043e-01
4.618711e-01
4.606802e-01
4.669793e-01
4.683615e-01
4.707999e-01
4.735961e-01
4.755415e-01
4.609104e-01
4.706390e-01
4.762531e-01
4.797986e-01
4.685466e-01
4.767619e-01
4.803431e-01
4.833972e-01
4.810097e-01
4.870944e-01
3.346392e-01
3.255259e-01
3.158217e-01
3.058780e-01
2.960663e-01
2.860859e-01
2.744371e-01
2.656737e-01
4.851852e-01
4.906312e-01
4.869710e-01
4.913951e-01
4.959145e-01
4.986824e-01
4.970696e-01
4.949906e-01
4.947089e-01
4.925448e-01
4.914984e-01
4.919134e-01
4.874972e-01
4.879924e-01
4.887079e-01
4.896253e-01
4.827466e-01
4.832210e-01
4.840166e-01
4.850505e-01
4.862514e-01
4.775813e-01
4.784483e-01
4.795983e-01
4.809759e-01
4.824804e-01
4.765719e-01
4.783778e-01
4.710167e-01
4.719867e-01
4.732372e-01
4.747988e-01
4.635645e-01
4.646292e-01
4.659356e-01
4.676659e-01
4.697648e-01
4.719535e-01
4.739488e-01
4.554212e-01
4.564328e-01
4.576770e-01
4.594946e-01
4.619814e-01
4.647160e-01
4.671540e-01
4.688886e-01
4.380937e-01
4.387038e-01
4.475357e-01
4.485085e-01
4.501371e-01
4.531701e-01
4.563927e-01
4.601633e-01
4.609291e-01
4.637006e-01
4.397060e-01
4.480488e-01
4.342034e-01
2.929734e-01
3.134728e-01
3.019316e-01
3.177408e-01
3.122687e-01
3.325534e-01
3.287342e-01
3.230260e-01
3.514828e-01
3.445330e-01
3.497973e-01
3.406876e-01
3.311779e-01
3.214653e-01
3.116770e-01
3.017177e-01
2.913161e-01
2.813796e-01
2.715019e-01
3.391546e-01
3.335755e-01
3.680606e-01
3.609824e-01
3.548321e-01
3.492562e-01
3.438299e-01
3.768001e-01
3.703106e-01
3.645019e-01
3.590653e-01
3.537843e-01
3.918943e-01
3.852684e-01
3.792844e-01
3.738181e-01
3.686046e-01
3.634351e-01
4.059270e-01
3.995671e-01
3.934650e-01
3.879972e-01
3.829015e-01
3.778990e-01
3.727501e-01
4.185630e-01
4.132427e-01
4.069113e-01
4.014961e-01
3.965371e-01
3.918424e-01
3.868978e-01
3.816336e-01
4.289714e-01
4.270027e-01
4.194334e-01
4.142877e-01
4.093343e-01
4.051174e-01
4.006228e-01
3.953554e-01
3.900450e-01
4.597425e-01
4.527501e-01
4.439069e-01
4.338918e-01
4.227869e-01
4.107688e-01
3.980426e-01
4.508588e-01
4.411590e-01
4.302798e-01
4.179662e-01
4.056070e-01
2.644532e-01
2.631174e-01
2.654297e-01
2.782762e-01
2.742580e-01
2.816594e-01
2.920763e-01
2.639908e-01
2.756453e-01
2.862642e-01
2.955033e-01
3.054954e-01
2.647331e-01
2.770025e-01
2.883693e-01
2.989035e-01
3.087601e-01
3.186322e-01
3.650926e-01
3.556980e-01
3.462150e-01
3.366793e-01
3.270467e-01
3.172470e-01
3.072004e-01
2.970631e-01
2.866193e-01
2.749121e-01
2.650159e-01
2.616001e-01
2.679780e-01
2.788747e-01
2.902339e-01
3.012327e-01
3.117169e-01
3.217829e-01
3.315852e-01
2.608442e-01
2.640524e-01
2.739321e-01
2.823650e-01
2.925991e-01
3.033943e-01
3.141002e-01
3.245145e-01
3.346475e-01
3.444742e-01
2.674165e-01
2.772763e-01
2.867271e-01
2.957987e-01
3.058663e-01
3.163667e-01
3.268667e-01
3.371846e-01
3.473196e-01
3.574592e-01
3.685371e-01
2.622462e-01
2.719913e-01
2.808203e-01
2.903838e-01
2.995780e-01
3.086633e-01
3.187735e-01
3.291123e-01
3.394578e-01
3.496353e-01
3.596087e-01
3.695421e-01
3.783873e-01
2.631041e-01
2.740495e-01
2.834488e-01
2.937066e-01
3.034451e-01
3.123378e-01
3.209494e-01
3.314518e-01
3.415823e-01
3.518424e-01
3.618435e-01
3.715860e-01
3.816078e-01
3.890308e-01
2.578296e-01
2.647038e-01
2.749621e-01
2.864429e-01
2.945968e-01
3.069782e-01
3.165901e-01
3.250606e-01
3.322595e-01
3.443708e-01
3.536753e-01
3.640663e-01
3.737921e-01
3.830297e-01
3.945060e-01
3.995879e-01
3.804131e-01
3.704484e-01
3.608535e-01
3.515003e-01
3.421003e-01
3.325237e-01
3.227073e-01
3.126499e-01
3.022457e-01
2.912723e-01
2.800874e-01
2.673238e-01
4.993800e-01
4.997843e-01
4.979013e-01
4.990009e-01
4.997280e-01
4.956855e-01
4.974652e-01
4.988011e-01
4.996783e-01
4.900552e-01
4.928313e-01
4.951836e-01
4.971336e-01
4.986425e-01
4.996357e-01
4.790794e-01
4.853574e-01
4.891082e-01
4.921193e-01
4.946800e-01
4.968177e-01
4.984847e-01
4.995912e-01
4.811011e-01
4.848242e-01
4.882829e-01
4.914091e-01
4.941521e-01
4.964684e-01
4.982928e-01
4.995272e-01
4.718425e-01
4.756905e-01
4.796646e-01
4.836281e-01
4.872959e-01
4.906138e-01
4.935384e-01
4.960190e-01
4.979909e-01
4.993708e-01
4.997359e-01
4.635404e-01
4.689159e-01
4.736444e-01
4.781257e-01
4.823299e-01
4.861973e-01
4.896908e-01
4.927666e-01
4.953628e-01
4.973886e-01
4.987299e-01
4.996513e-01
4.479141e-01
4.551448e-01
4.613309e-01
4.667820e-01
4.718183e-01
4.765372e-01
4.809249e-01
4.849522e-01
4.885872e-01
4.917875e-01
4.945031e-01
4.966966e-01
4.984137e-01
4.995743e-01
4.283007e-01
4.383853e-01
4.463537e-01
4.532367e-01
4.592270e-01
4.647604e-01
3.952962e-01
3.847266e-01
3.748968e-01
3.658385e-01
3.567719e-01
3.474921e-01
3.379355e-01
3.280762e-01
3.178658e-01
3.072281e-01
2.961933e-01
2.845953e-01
2.729492e-01
4.699651e-01
4.748392e-01
4.793593e-01
4.835088e-01
4.872614e-01
4.905923e-01
4.935092e-01
4.960301e-01
4.981119e-01
4.994991e-01
2.637859e-01
2.765652e-01
2.894230e-01
3.023739e-01
3.153908e-01
3.284225e-01
3.414022e-01
3.542548e-01
3.669042e-01
3.792961e-01
3.914383e-01
4.033208e-01
4.148609e-01
4.261180e-01
4.368445e-01
4.468432e-01
4.560126e-01
4.647642e-01
4.732844e-01
4.792416e-01
4.848917e-01
4.908099e-01
4.949088e-01
4.980488e-01
4.192160e-01
4.300271e-01
4.375166e-01
4.449100e-01
4.511054e-01
4.570076e-01
4.626609e-01
4.679971e-01
4.729631e-01
4.775696e-01
4.818174e-01
4.856425e-01
4.890913e-01
4.922834e-01
4.950920e-01
4.979473e-01
4.992543e-01
2.644870e-01
2.778109e-01
2.911801e-01
3.045820e-01
3.179875e-01
3.313500e-01
3.446117e-01
3.577100e-01
3.705872e-01
3.831979e-01
3.955013e-01
4.074416e-01
4.189547e-01
4.299732e-01
4.403978e-01
4.501664e-01
4.592351e-01
4.675971e-01
4.750232e-01
4.815741e-01
4.873236e-01
4.922886e-01
4.961653e-01
4.988611e-01
2.651543e-01
2.790638e-01
2.929525e-01
3.068229e-01
3.206445e-01
3.343692e-01
3.479386e-01
3.612928e-01
3.743735e-01
3.871254e-01
3.994915e-01
4.114101e-01
4.228177e-01
4.336520e-01
4.438546e-01
4.533748e-01
4.621603e-01
4.701536e-01
4.773030e-01
4.836120e-01
4.890412e-01
4.935321e-01
4.969631e-01
4.991918e-01
2.658258e-01
2.803258e-01
2.947801e-01
3.091682e-01
3.234434e-01
3.375475e-01
3.514222e-01
3.650080e-01
3.782467e-01
4.091892e-01
3.983159e-01
3.879922e-01
3.795807e-01
3.710000e-01
3.621018e-01
3.528660e-01
3.432795e-01
3.333308e-01
3.230041e-01
3.122945e-01
3.011720e-01
2.896311e-01
2.772057e-01
2.675230e-01
3.910808e-01
4.034529e-01
4.153050e-01
4.265798e-01
4.372243e-01
4.471906e-01
4.564327e-01
4.649052e-01
4.725682e-01
4.793920e-01
4.853478e-01
4.903895e-01
4.944590e-01
4.974791e-01
4.993576e-01
2.664218e-01
2.816347e-01
2.967664e-01
3.117394e-01
3.264901e-01
3.409659e-01
3.551160e-01
3.688899e-01
3.822352e-01
3.951008e-01
4.074360e-01
4.191873e-01
4.303004e-01
4.407269e-01
4.504279e-01
4.593646e-01
4.675008e-01
4.748088e-01
4.812648e-01
4.868359e-01
4.914826e-01
4.951645e-01
4.978376e-01
4.994589e-01
2.672222e-01
2.832996e-01
2.991729e-01
3.147306e-01
3.299240e-01
3.447197e-01
3.590829e-01
3.729806e-01
3.863715e-01
3.992204e-01
4.114848e-01
4.231077e-01
4.340278e-01
4.441972e-01
4.535977e-01
4.621953e-01
4.699636e-01
4.768878e-01
4.829566e-01
4.881358e-01
4.923992e-01
4.957297e-01
4.981110e-01
4.995324e-01
2.686533e-01
2.856980e-01
3.022701e-01
3.183236e-01
3.338750e-01
3.489012e-01
3.633707e-01
3.772984e-01
3.906588e-01
4.034608e-01
4.156428e-01
4.271230e-01
4.378226e-01
4.476740e-01
4.567318e-01
4.649445e-01
4.723175e-01
4.788371e-01
4.845149e-01
4.892970e-01
4.931934e-01
4.962115e-01
4.983429e-01
4.995959e-01
2.706114e-01
2.889834e-01
3.061957e-01
3.225916e-01
3.384662e-01
3.536426e-01
3.679755e-01
3.817614e-01
3.950118e-01
4.078661e-01
4.199663e-01
4.313029e-01
4.418029e-01
4.512085e-01
4.598444e-01
4.675764e-01
4.746168e-01
4.807213e-01
4.859859e-01
4.903190e-01
4.938902e-01
4.966594e-01
4.219264e-01
4.112363e-01
3.994723e-01
3.926902e-01
3.847518e-01
3.763038e-01
3.674507e-01
3.581927e-01
3.485497e-01
3.385508e-01
3.282090e-01
3.175205e-01
3.065175e-01
2.952973e-01
2.846147e-01
2.730116e-01
4.985779e-01
4.996667e-01
2.745229e-01
2.946579e-01
3.106518e-01
3.274127e-01
3.440311e-01
3.594073e-01
3.727912e-01
3.846023e-01
3.995427e-01
4.126821e-01
4.244746e-01
4.356260e-01
4.464678e-01
4.551683e-01
4.624406e-01
4.699041e-01
4.772064e-01
4.828764e-01
4.871144e-01
4.910949e-01
4.944854e-01
4.971821e-01
4.989361e-01
4.997206e-01
4.997288e-01
4.996254e-01
4.988241e-01
4.997490e-01
4.993591e-01
4.984404e-01
4.972118e-01
4.996293e-01
4.988325e-01
4.978636e-01
4.964791e-01
4.948554e-01
4.994176e-01
4.984318e-01
4.971188e-01
4.955855e-01
4.937404e-01
4.917089e-01
4.996418e-01
4.986697e-01
4.978434e-01
4.963810e-01
4.945655e-01
4.925066e-01
4.902079e-01
4.877365e-01
4.829905e-01
4.995214e-01
4.984726e-01
4.970142e-01
4.954838e-01
4.934930e-01
4.911684e-01
4.886133e-01
4.858787e-01
4.775793e-01
4.997488e-01
4.992890e-01
4.981255e-01
4.964820e-01
4.945003e-01
4.923174e-01
4.897706e-01
4.869247e-01
4.838959e-01
4.807665e-01
4.714884e-01
4.996029e-01
4.987728e-01
4.976126e-01
4.958562e-01
4.936507e-01
4.911164e-01
4.883184e-01
4.852073e-01
4.818195e-01
4.783425e-01
4.748787e-01
4.993694e-01
4.983506e-01
4.969275e-01
4.950885e-01
4.927395e-01
4.899716e-01
4.868662e-01
4.834738e-01
4.798006e-01
4.758095e-01
4.719325e-01
4.682020e-01
4.643663e-01
4.558246e-01
4.996798e-01
4.987421e-01
4.978122e-01
4.962568e-01
4.942173e-01
4.917270e-01
4.887835e-01
4.854470e-01
4.817545e-01
4.777785e-01
4.735788e-01
4.687701e-01
4.646541e-01
4.607913e-01
4.239619e-01
4.336544e-01
4.995709e-01
4.986797e-01
4.972534e-01
4.955623e-01
4.933521e-01
4.906592e-01
4.875268e-01
4.839932e-01
4.800920e-01
4.757764e-01
4.712217e-01
4.666959e-01
4.602655e-01
4.565906e-01
4.530362e-01
4.445199e-01
2.512000e-01
2.512000e-01
2.512000e-01
2.512000e-01
2.512000e-01
2.512000e-01
2.512000e-01
2.512000e-01
2.512000e-01
2.512000e-01
2.512000e-01
2.512000e-01
2.512000e-01
2.512000e-01
2.512000e-01
2.512000e-01
2.512000e-01
2.512000e-01
2.512000e-01
2.512000e-01
2.512000e-01
2.512000e-01
2.512000e-01
2.512000e-01
2.512000e-01
2.512000e-01
2.512000e-01
2.512000e-01
2.512000e-01
2.512000e-01
2.512000e-01
2.512000e-01
2.512000e-01
2.512000e-01
2.512000e-01
2.512000e-01
2.512000e-01
2.512000e-01
2.512000e-01
2.512000e-01
2.512000e-01
2.512000e-01
2.512000e-01
2.512000e-01
2.512000e-01
2.512000e-01
2.512000e-01
2.512000e-01
2.512000e-01
2.512000e-01
2.512000e-01
2.512000e-01
2.512000e-01
2.512000e-01
2.512000e-01
2.512000e-01
2.512000e-01
2.512000e-01
2.512000e-01
2.512000e-01
2.512000e-01
2.512000e-01
2.512000e-01
2.512000e-01
2.512000e-01
2.512000e-01
2.512000e-01
2.512000e-01
2.512000e-01
2.512000e-01
2.512000e-01
2.512000e-01
2.512000e-01
2.512000e-01
2.512000e-01
2.512000e-01
2.512000e-01
2.512000e-01
2.512000e-01
2.512000e-01
2.512000e-01
2.512000e-01
2.512000e-01
2.512000e-01
2.512000e-01
2.512000e-01
2.512000e-01
2.512000e-01
2.512000e-01
2.512000e-01
2.512000e-01
2.512000e-01
2.512000e-01
2.512000e-01
2.512000e-01
2.512000e-01
2.512000e-01
2.512000e-01
2.512000e-01
2.512000e-01
2.512000e-01
2.512000e-01
2.512000e-01
2.512000e-01
2.512000e-01
2.512000e-01
2.512000e-01
2.512000e-01
2.512000e-01
2.512000e-01
2.512000e-01
2.512000e-01
2.512000e-01
2.512000e-01
2.512000e-01
2.512000e-01
2.512000e-01
2.512000e-01
2.512000e-01
2.512000e-01
2.512000e-01
2.512000e-01
2.512000e-01
2.512000e-01
2.512000e-01
2.512000e-01
2.512000e-01
2.512000e-01
2.512000e-01
2.512000e-01
2.512000e-01
2.512000e-01
2.512000e-01
2.512000e-01
2.512000e-01
2.512000e-01
2.512000e-01
2.512000e-01
2.512000e-01
2.512000e-01
2.512000e-01
2.512000e-01
2.512000e-01
2.512000e-01
2.512000e-01
2.512000e-01
2.512000e-01
2.512000e-01
2.512000e-01
2.512000e-01
2.512000e-01
2.512000e-01
2.512000e-01
2.512000e-01
2.512000e-01
2.512000e-01
2.512000e-01
2.512000e-01
2.512000e-01
2.512000e-01
2.512000e-01
2.512000e-01
2.512000e-01
2.512000e-01
2.512000e-01
2.512000e-01
2.512000e-01
2.512000e-01
2.512000e-01
2.512000e-01
2.512000e-01
2.512000e-01
2.512000e-01
2.512000e-01
2.512000e-01
2.512000e-01
2.512000e-01
2.512000e-01
2.512000e-01
2.512000e-01
2.512000e-01
2.512000e-01
2.512000e-01
2.512000e-01
2.512000e-01
2.512000e-01
2.512000e-01
2.512000e-01
2.512000e-01
2.512000e-01
2.512000e-01
2.512000e-01
2.512000e-01
2.512000e-01
2.512000e-01
2.512000e-01
2.512000e-01
2.512000e-01
2.512000e-01
2.512000e-01
2.512000e-01
2.512000e-01
2.512000e-01
2.512000e-01
2.512000e-01
2.512000e-01
2.512000e-01
2.512000e-01
2.512000e-01
2.512000e-01
2.512000e-01
2.512000e-01
2.512000e-01
2.512000e-01
2.512000e-01
2.512000e-01
2.512000e-01
2.512000e-01
2.512000e-01
2.512000e-01
2.512000e-01
2.512000e-01
2.512000e-01
2.512000e-01
2.512000e-01
2.512000e-01
2.512000e-01
2.512000e-01
2.512000e-01
2.512000e-01
2.512000e-01
2.512000e-01
2.512000e-01
2.512000e-01
2.512000e-01
2.512000e-01
2.512000e-01
2.512000e-01
2.512000e-01
2.512000e-01
2.512000e-01
2.512000e-01
2.512000e-01
2.512000e-01
2.512000e-01
2.512000e-01
2.512000e-01
2.512000e-01
2.512000e-01
2.512000e-01
2.512000e-01
2.512000e-01
2.512000e-01
2.512000e-01
2.512000e-01
2.512000e-01
2.512000e-01
2.512000e-01
2.512000e-01
2.512000e-01
2.512000e-01
2.512000e-01
2.512000e-01
2.512000e-01
2.512000e-01
2.512000e-01
2.512000e-01
2.512000e-01
2.512000e-01
2.512000e-01
2.512000e-01
2.512000e-01
2.512000e-01
2.512000e-01
2.512000e-01
2.512000e-01
2.512000e-01
2.512000e-01
2.512000e-01
2.512000e-01
2.512000e-01
2.512000e-01
2.512000e-01
2.512000e-01
2.512000e-01
2.512000e-01
2.512000e-01
2.512000e-01
2.512000e-01
2.512000e-01
2.512000e-01
2.512000e-01
2.512000e-01
2.512000e-01
2.512000e-01
2.512000e-01
2.512000e-01
2.512000e-01
2.512000e-01
2.512000e-01
2.512000e-01
2.512000e-01
2.512000e-01
2.512000e-01
2.512000e-01
2.512000e-01
2.512000e-01
2.512000e-01
2.512000e-01
2.512000e-01
2.512000e-01
2.512000e-01
2.512000e-01
2.512000e-01
2.512000e-01
2.512000e-01
2.512000e-01
2.512000e-01
2.512000e-01
2.512000e-01
2.512000e-01
2.512000e-01
2.512000e-01
2.512000e-01
2.512000e-01
2.512000e-01
2.512000e-01
2.512000e-01
2.512000e-01
2.512000e-01
2.512000e-01
2.512000e-01
2.512000e-01
2.512000e-01
2.512000e-01
2.512000e-01
2.512000e-01
2.512000e-01
2.512000e-01
2.512000e-01
2.512000e-01
2.512000e-01
2.512000e-01
2.512000e-01
2.512000e-01
2.512000e-01
2.512000e-01
2.512000e-01
2.512000e-01
2.512000e-01
2.512000e-01
2.512000e-01
2.512000e-01
2.512000e-01
2.512000e-01
2.512000e-01
2.512000e-01
2.512000e-01
2.512000e-01
2.512000e-01
2.512000e-01
2.512000e-01
2.512000e-01
2.512000e-01
2.512000e-01
2.512000e-01
2.512000e-01
2.512000e-01
2.512000e-01
2.512000e-01
4.012000e-01
4.012000e-01
4.012000e-01
4.012000e-01
4.012000e-01
4.012000e-01
4.012000e-01
4.012000e-01
4.012000e-01
4.012000e-01
4.012000e-01
4.012000e-01
4.012000e-01
4.012000e-01
4.012000e-01
4.012000e-01
4.012000e-01
4.012000e-01
4.012000e-01
4.012000e-01
4.012000e-01
4.012000e-01
4.012000e-01
4.012000e-01
4.012000e-01
4.012000e-01
4.012000e-01
4.012000e-01
4.012000e-01
4.012000e-01
4.012000e-01
4.012000e-01
4.012000e-01
3.633797e-01
3.575343e-01
3.725932e-01
3.620336e-01
3.660610e-01
3.544861e-01
3.536903e-01
3.488810e-01
3.449569e-01
3.591919e-01
3.515407e-01
3.456219e-01
3.551767e-01
3.436215e-01
3.514993e-01
2.752516e-01
3.998714e-01
3.977728e-01
3.932538e-01
3.951365e-01
3.936570e-01
3.896911e-01
3.937036e-01
3.910389e-01
3.883143e-01
3.884378e-01
3.850991e-01
3.815521e-01
3.849474e-01
3.814086e-01
3.778148e-01
3.736247e-01
3.980042e-01
3.809422e-01
3.770157e-01
3.729571e-01
3.704846e-01
3.646035e-01
3.605282e-01
3.647835e-01
3.546173e-01
3.772374e-01
3.689952e-01
4.003163e-01
3.591678e-01
3.468815e-01
3.537711e-01
3.481620e-01
3.427116e-01
3.383883e-01
3.359759e-01
3.402113e-01
3.347330e-01
3.301469e-01
3.266065e-01
3.320037e-01
3.251225e-01
3.204764e-01
3.164016e-01
3.130636e-01
3.093909e-01
3.053961e-01
2.976839e-01
2.935636e-01
2.794954e-01
3.237526e-01
3.074660e-01
2.938287e-01
2.831180e-01
2.702177e-01
3.933406e-01
3.898749e-01
4.006903e-01
3.988726e-01
3.999416e-01
3.959745e-01
3.974655e-01
3.941217e-01
3.902210e-01
3.944839e-01
3.972057e-01
3.997564e-01
3.007135e-01
2.889650e-01
2.718009e-01
2.998649e-01
2.835117e-01
2.651140e-01
3.931396e-01
3.897027e-01
4.006056e-01
3.987402e-01
3.997960e-01
3.958790e-01
3.972829e-01
3.939209e-01
3.900209e-01
2.995343e-01
2.882256e-01
2.729191e-01
3.009488e-01
2.840553e-01
2.651177e-01
4.005538e-01
3.985964e-01
3.996205e-01
3.956749e-01
3.969868e-01
3.936553e-01
3.899792e-01
3.015288e-01
2.893820e-01
2.726852e-01
4.003892e-01
3.978706e-01
3.953238e-01
3.933879e-01
3.910581e-01
3.900487e-01
3.838566e-01
3.011480e-01
2.857982e-01
2.660708e-01
3.276634e-01
3.132484e-01
2.979457e-01
2.794573e-01
2.648745e-01
3.935191e-01
3.901992e-01
4.006315e-01
3.987916e-01
3.997958e-01
3.959083e-01
3.972989e-01
3.938462e-01
3.899565e-01
3.029112e-01
2.907907e-01
2.736234e-01
3.005993e-01
2.846780e-01
3.799234e-01
3.877737e-01
3.922635e-01
3.956062e-01
2.654371e-01
4.005565e-01
3.987256e-01
3.960791e-01
3.026311e-01
2.903029e-01
2.725048e-01
3.914751e-01
3.876437e-01
4.003448e-01
3.981278e-01
3.993389e-01
3.949507e-01
3.962619e-01
3.907435e-01
3.921242e-01
3.853243e-01
3.875787e-01
3.225694e-01
3.091377e-01
2.960530e-01
2.831273e-01
2.685608e-01
2.951240e-01
2.800363e-01
2.636471e-01
4.003031e-01
3.978708e-01
3.989536e-01
3.944154e-01
3.959469e-01
3.923377e-01
3.883317e-01
3.685685e-01
2.973522e-01
2.862860e-01
2.704216e-01
4.006986e-01
3.982172e-01
3.948285e-01
3.923368e-01
3.898743e-01
3.886610e-01
3.818103e-01
2.981397e-01
2.828889e-01
2.647336e-01
3.241358e-01
3.101259e-01
2.953004e-01
2.775496e-01
2.638010e-01
3.919328e-01
3.882229e-01
4.004113e-01
3.982379e-01
3.994457e-01
3.950435e-01
3.964989e-01
3.925332e-01
3.882107e-01
2.998521e-01
2.880722e-01
2.716672e-01
2.965750e-01
2.816353e-01
2.640287e-01
3.919709e-01
3.883273e-01
4.003996e-01
3.600542e-01
3.981244e-01
3.993808e-01
3.947991e-01
3.964537e-01
3.927187e-01
3.885247e-01
2.971478e-01
2.854139e-01
2.699363e-01
2.949693e-01
2.801890e-01
2.633034e-01
4.003193e-01
3.978853e-01
3.989560e-01
3.945043e-01
3.955609e-01
3.911208e-01
3.866686e-01
2.958072e-01
2.846028e-01
2.687678e-01
4.000419e-01
3.981185e-01
3.955919e-01
3.899245e-01
3.908799e-01
3.858479e-01
3.829059e-01
2.949439e-01
2.798595e-01
2.629836e-01
3.266918e-01
3.133756e-01
2.931133e-01
2.798697e-01
2.675649e-01
4.001291e-01
3.971069e-01
3.976366e-01
3.780012e-01
3.851547e-01
3.902452e-01
3.937934e-01
3.960168e-01
3.989197e-01
3.929534e-01
3.939440e-01
3.893806e-01
3.847221e-01
2.947602e-01
2.838368e-01
2.689482e-01
3.999967e-01
3.958930e-01
3.896637e-01
3.853495e-01
3.797890e-01
2.952879e-01
2.797986e-01
2.630210e-01
2.677502e-01
3.939387e-01
3.917071e-01
3.878240e-01
3.874760e-01
3.808313e-01
3.793235e-01
3.812960e-01
3.741941e-01
3.661831e-01
3.689657e-01
3.723157e-01
3.743112e-01
3.580705e-01
3.621670e-01
3.659548e-01
3.642789e-01
3.372873e-01
3.282536e-01
3.214299e-01
3.145543e-01
3.064591e-01
2.967292e-01
2.858716e-01
2.775382e-01
2.676855e-01
2.840183e-01
2.894865e-01
2.992852e-01
2.999072e-01
3.160180e-01
3.121289e-01
3.091936e-01
3.258936e-01
3.215912e-01
3.179711e-01
3.255933e-01
3.390643e-01
3.338820e-01
3.294698e-01
3.507475e-01
3.457560e-01
3.405082e-01
3.363879e-01
3.327789e-01
3.574506e-01
3.403274e-01
3.479795e-01
3.512513e-01
3.979061e-01
2.661311e-01
3.999283e-01
3.997875e-01
3.984772e-01
3.961416e-01
4.006068e-01
3.918394e-01
3.899185e-01
3.872256e-01
3.613900e-01
3.676850e-01
3.760526e-01
3.831274e-01
3.885463e-01
3.925207e-01
3.955169e-01
3.984058e-01
4.006884e-01
3.994906e-01
3.973868e-01
3.941595e-01
3.776175e-01
4.004639e-01
3.989195e-01
3.966669e-01
3.933315e-01
3.894597e-01
3.858009e-01
3.820930e-01
4.008554e-01
4.000393e-01
3.978749e-01
3.962095e-01
3.921008e-01
3.878544e-01
3.840224e-01
3.809430e-01
3.747926e-01
3.691346e-01
2.704387e-01
2.617876e-01
3.009009e-01
2.914931e-01
2.800474e-01
2.687334e-01
3.033301e-01
2.876073e-01
3.388527e-01
3.327469e-01
3.230179e-01
3.090235e-01
2.969544e-01
2.854287e-01
2.741172e-01
2.642142e-01
3.233342e-01
3.121322e-01
3.916378e-01
3.861473e-01
3.799714e-01
3.719942e-01
3.623288e-01
3.507773e-01
3.381140e-01
4.006126e-01
3.992536e-01
3.961378e-01
3.913768e-01
3.852715e-01
3.770620e-01
3.682487e-01
3.580537e-01
3.468395e-01
3.373550e-01
3.261344e-01
3.148118e-01
3.025229e-01
2.855747e-01
2.706210e-01
3.510683e-01
3.433588e-01
3.345312e-01
3.240866e-01
3.127193e-01
3.013853e-01
2.899282e-01
2.784673e-01
2.676737e-01
2.631907e-01
3.819320e-01
3.755760e-01
3.667938e-01
3.559579e-01
2.876360e-01
2.823204e-01
2.683484e-01
3.409763e-01
3.272588e-01
3.124337e-01
2.977684e-01
2.824623e-01
2.693252e-01
3.915673e-01
3.861053e-01
3.797027e-01
3.712090e-01
3.614444e-01
3.504496e-01
3.383465e-01
3.245236e-01
3.105306e-01
2.970405e-01
4.005021e-01
3.991310e-01
3.961389e-01
3.919915e-01
3.857240e-01
3.758895e-01
3.665181e-01
3.559335e-01
3.443544e-01
3.333959e-01
4.005125e-01
3.983460e-01
3.952564e-01