VARIABLES = "X" "Y" "Z" "FREF"
ZONE T="instant 082"
Nodes=3151, Elements=6298
ZONETYPE=FETriangle
DATAPACKING=BLOCK
VARLOCATION = ([1-3]=NODAL, [4]=CELLCENTERED)
5.000000e-01
2.539070e-01
2.741568e-01
2.899863e-01
3.032088e-01
3.186862e-01
3.345397e-01
3.505914e-01
3.675627e-01
3.851615e-01
4.015773e-01
4.156645e-01
4.283555e-01
4.399476e-01
4.504678e-01
4.596764e-01
4.674044e-01
4.732305e-01
4.785437e-01
4.841217e-01
4.889906e-01
4.928407e-01
4.956710e-01
4.977493e-01
4.991131e-01
4.998351e-01
2.382000e-01
2.382000e-01
2.382000e-01
2.382000e-01
2.382000e-01
2.382000e-01
2.382000e-01
2.382000e-01
2.382000e-01
2.382000e-01
2.382000e-01
2.382000e-01
3.876915e-01
3.865588e-01
3.833099e-01
3.779148e-01
3.705793e-01
3.656112e-01
3.593129e-01
3.508981e-01
3.432476e-01
3.358067e-01
3.275842e-01
3.177610e-01
3.098153e-01
3.023737e-01
2.953688e-01
2.863197e-01
2.771077e-01
2.706272e-01
2.617181e-01
2.504647e-01
3.882000e-01
4.897224e-01
4.787769e-01
4.685474e-01
4.584226e-01
4.475202e-01
4.365828e-01
4.260055e-01
4.156896e-01
4.056901e-01
3.964901e-01
4.121829e-01
2.810967e-01
2.694449e-01
4.227576e-01
4.057415e-01
2.878341e-01
2.977038e-01
2.792283e-01
2.982789e-01
2.576818e-01
3.001325e-01
2.860874e-01
3.032747e-01
3.142073e-01
4.904568e-01
3.265175e-01
3.399175e-01
3.205916e-01
3.295424e-01
3.743214e-01
3.825994e-01
4.133924e-01
3.971382e-01
3.949816e-01
4.205471e-01
4.265093e-01
4.101575e-01
4.859965e-01
4.798764e-01
4.194603e-01
4.302219e-01
4.241852e-01
4.387568e-01
4.319590e-01
4.407659e-01
3.956773e-01
4.115183e-01
4.032985e-01
3.890876e-01
2.801214e-01
2.656109e-01
2.515292e-01
2.556658e-01
2.552355e-01
2.718578e-01
2.872136e-01
2.562060e-01
2.719127e-01
2.881215e-01
3.035603e-01
2.476693e-01
2.583139e-01
2.732671e-01
2.888165e-01
4.883405e-01
3.051609e-01
3.196892e-01
3.216456e-01
3.357966e-01
3.247422e-01
3.366407e-01
3.511483e-01
2.540491e-01
2.718264e-01
2.902055e-01
3.086114e-01
3.040334e-01
3.043278e-01
3.122904e-01
3.210178e-01
3.372003e-01
3.500145e-01
3.583590e-01
3.680212e-01
2.548774e-01
2.716460e-01
2.884112e-01
3.095210e-01
3.226896e-01
3.345340e-01
3.481781e-01
3.385664e-01
3.487582e-01
3.521397e-01
3.631634e-01
3.743863e-01
3.874917e-01
3.178137e-01
3.292750e-01
3.426188e-01
3.629903e-01
4.847422e-01
4.774411e-01
4.738473e-01
4.676758e-01
3.760685e-01
3.884272e-01
4.018742e-01
3.237357e-01
3.532851e-01
3.654548e-01
3.770563e-01
3.891589e-01
4.013376e-01
4.147490e-01
3.368188e-01
3.482134e-01
3.618729e-01
3.669074e-01
3.796683e-01
3.919608e-01
4.808365e-01
4.727516e-01
4.670874e-01
4.610255e-01
4.566288e-01
4.007190e-01
4.125407e-01
4.261725e-01
3.770760e-01
3.925317e-01
4.088122e-01
4.221860e-01
4.366217e-01
3.420447e-01
3.546001e-01
3.661861e-01
3.799988e-01
4.053194e-01
4.198825e-01
4.325897e-01
4.464008e-01
3.917693e-01
4.052776e-01
4.168294e-01
4.302689e-01
4.421172e-01
4.551331e-01
4.472504e-01
4.547536e-01
3.576737e-01
3.697192e-01
3.809448e-01
3.938180e-01
4.050214e-01
4.168723e-01
4.267825e-01
4.397904e-01
4.504671e-01
4.629914e-01
4.293963e-01
4.346143e-01
4.758049e-01
4.676776e-01
4.619228e-01
4.544935e-01
4.507346e-01
4.448969e-01
4.391763e-01
4.372347e-01
4.439656e-01
4.490524e-01
4.553267e-01
4.615145e-01
4.698047e-01
2.382000e-01
4.997755e-01
4.983491e-01
4.959860e-01
4.929931e-01
4.880542e-01
4.822718e-01
4.746608e-01
4.648291e-01
4.528295e-01
4.404487e-01
4.289967e-01
4.165791e-01
4.036640e-01
3.897738e-01
3.774754e-01
3.671738e-01
3.567692e-01
3.447850e-01
3.318547e-01
3.186431e-01
3.052700e-01
2.915580e-01
2.776998e-01
2.636025e-01
2.500481e-01
5.000000e-01
3.964620e-01
4.060078e-01
4.153717e-01
4.263178e-01
4.363516e-01
4.467197e-01
4.578350e-01
4.696647e-01
4.805413e-01
4.908719e-01
3.882000e-01
2.481437e-01
2.579143e-01
2.704604e-01
2.872112e-01
2.988898e-01
3.097358e-01
3.203299e-01
3.300239e-01
3.380148e-01
3.435336e-01
3.509343e-01
3.577292e-01
3.629428e-01
3.670010e-01
3.706830e-01
3.759358e-01
3.798311e-01
3.819937e-01
3.841222e-01
3.862117e-01
3.877478e-01
2.382000e-01
2.382000e-01
2.382000e-01
2.382000e-01
2.382000e-01
2.382000e-01
2.382000e-01
2.382000e-01
2.382000e-01
2.382000e-01
2.382000e-01
4.155198e-01
4.347719e-01
2.704601e-01
2.994341e-01
2.892357e-01
3.932114e-01
3.962342e-01
4.073884e-01
4.051808e-01
4.193312e-01
4.188501e-01
4.246058e-01
4.096954e-01
4.469781e-01
2.518103e-01
4.391159e-01
4.254506e-01
4.401833e-01
4.160681e-01
4.332461e-01
4.252070e-01
4.442885e-01
4.361479e-01
2.539021e-01
3.058235e-01
2.724127e-01
2.665197e-01
2.557774e-01
2.976840e-01
3.204651e-01
2.841620e-01
3.178589e-01
3.009327e-01
3.237985e-01
3.109895e-01
3.326599e-01
3.416483e-01
2.620156e-01
3.966090e-01
2.529639e-01
2.635887e-01
2.813875e-01
3.896946e-01
3.997316e-01
4.068544e-01
4.886120e-01
4.769618e-01
4.836428e-01
4.855313e-01
4.602788e-01
4.660926e-01
4.703023e-01
4.744561e-01
2.800659e-01
2.692787e-01
2.536519e-01
4.800025e-01
4.585113e-01
4.621208e-01
4.665045e-01
4.757739e-01
4.512041e-01
4.534620e-01
4.650971e-01
4.701709e-01
3.874964e-01
3.917432e-01
3.988905e-01
4.386174e-01
4.478470e-01
4.594119e-01
4.303171e-01
4.419432e-01
4.456712e-01
4.510445e-01
4.532478e-01
4.549123e-01
4.581045e-01
3.775821e-01
4.033769e-01
4.140110e-01
4.265099e-01
4.335949e-01
4.408235e-01
4.478657e-01
3.805463e-01
3.831956e-01
3.897062e-01
4.172996e-01
4.258121e-01
2.939620e-01
2.835816e-01
4.308356e-01
4.366505e-01
3.658058e-01
3.933187e-01
3.997142e-01
4.103347e-01
4.163707e-01
4.200938e-01
4.251098e-01
3.692328e-01
3.707040e-01
3.760737e-01
3.991504e-01
4.056365e-01
4.087590e-01
4.132081e-01
3.768728e-01
3.066481e-01
2.947908e-01
2.819354e-01
2.674707e-01
2.518546e-01
3.808129e-01
3.901990e-01
3.944637e-01
3.965796e-01
4.006217e-01
3.498468e-01
3.535332e-01
3.537309e-01
3.595381e-01
3.777483e-01
3.815041e-01
3.839776e-01
3.877369e-01
3.591179e-01
3.625458e-01
3.635119e-01
3.688439e-01
3.720348e-01
3.744722e-01
2.545847e-01
2.703264e-01
2.905051e-01
3.045145e-01
3.175468e-01
3.314316e-01
3.449382e-01
3.293035e-01
3.310461e-01
3.401276e-01
3.431302e-01
3.410923e-01
3.468151e-01
3.508241e-01
3.587827e-01
3.583121e-01
3.593760e-01
3.196730e-01
3.077819e-01
2.960061e-01
2.832929e-01
2.688784e-01
2.532926e-01
3.222338e-01
3.332754e-01
3.452496e-01
2.998395e-01
3.099920e-01
3.208869e-01
3.326821e-01
5.000000e-01
5.000000e-01
5.000000e-01
5.000000e-01
5.000000e-01
5.000000e-01
5.000000e-01
5.000000e-01
5.000000e-01
5.000000e-01
5.000000e-01
5.000000e-01
5.000000e-01
5.000000e-01
5.000000e-01
5.000000e-01
5.000000e-01
5.000000e-01
5.000000e-01
5.000000e-01
5.000000e-01
5.000000e-01
5.000000e-01
5.000000e-01
5.000000e-01
5.000000e-01
5.000000e-01
5.000000e-01
5.000000e-01
5.000000e-01
5.000000e-01
5.000000e-01
5.000000e-01
2.382000e-01
2.382000e-01
2.382000e-01
2.382000e-01
2.382000e-01
2.382000e-01
2.382000e-01
2.382000e-01
2.382000e-01
2.382000e-01
2.382000e-01
2.382000e-01
2.382000e-01
2.382000e-01
2.382000e-01
2.382000e-01
2.382000e-01
2.382000e-01
2.382000e-01
2.382000e-01
2.382000e-01
2.382000e-01
2.382000e-01
2.382000e-01
2.382000e-01
2.382000e-01
2.382000e-01
2.382000e-01
2.382000e-01
2.382000e-01
2.382000e-01
2.382000e-01
2.382000e-01
3.977041e-01
4.058836e-01
4.024459e-01
4.103906e-01
4.187433e-01
4.370984e-01
4.237161e-01
4.295276e-01
3.694395e-01
3.770060e-01
3.829277e-01
3.841835e-01
3.899551e-01
3.944588e-01
3.991548e-01
4.176901e-01
4.045239e-01
3.977694e-01
4.104129e-01
4.228975e-01
3.911645e-01
3.911678e-01
2.607694e-01
2.517903e-01
4.023532e-01
4.149307e-01
4.274665e-01
4.138357e-01
4.220037e-01
4.303704e-01
4.250888e-01
4.326806e-01
4.356662e-01
4.516073e-01
4.265579e-01
4.357805e-01
4.224777e-01
4.402108e-01
4.288725e-01
4.167803e-01
4.442844e-01
4.336738e-01
4.233517e-01
4.127554e-01
4.438657e-01
4.519257e-01
4.490263e-01
4.412195e-01
4.344579e-01
2.783727e-01
2.673467e-01
2.548220e-01
4.092193e-01
4.168422e-01
4.233506e-01
4.034819e-01
4.110609e-01
3.978610e-01
2.514266e-01
2.613462e-01
2.636427e-01
2.734197e-01
2.762091e-01
2.838687e-01
2.863603e-01
2.891798e-01
2.898361e-01
2.958157e-01
2.993173e-01
3.023950e-01
3.032772e-01
3.085954e-01
3.124316e-01
3.157369e-01
3.112699e-01
3.169456e-01
3.217807e-01
3.256716e-01
3.291123e-01
3.204520e-01
3.255271e-01
3.306364e-01
3.351428e-01
3.389420e-01
3.424196e-01
3.290877e-01
2.943689e-01
2.837906e-01
2.724501e-01
2.606368e-01
2.524454e-01
3.344286e-01
3.394883e-01
3.442784e-01
3.485469e-01
3.521145e-01
3.555375e-01
3.426306e-01
3.483164e-01
3.532416e-01
3.578189e-01
3.619369e-01
3.650073e-01
3.683242e-01
3.500107e-01
3.564914e-01
3.622439e-01
3.667295e-01
3.712084e-01
3.754102e-01
3.772667e-01
3.806620e-01
3.572469e-01
3.638843e-01
3.703896e-01
3.763370e-01
3.796478e-01
3.844430e-01
3.895838e-01
3.879781e-01
3.929251e-01
4.026221e-01
4.331074e-01
3.869800e-01
3.984278e-01
4.107606e-01
3.099245e-01
3.000447e-01
2.894336e-01
2.786301e-01
2.687261e-01
2.590430e-01
4.230248e-01
3.789446e-01
3.915946e-01
4.047221e-01
4.174034e-01
4.286584e-01
4.390050e-01
4.048808e-01
4.119417e-01
4.166683e-01
4.211024e-01
4.249804e-01
4.300007e-01
4.350918e-01
4.399469e-01
4.401416e-01
4.426409e-01
4.454543e-01
4.474110e-01
4.493989e-01
4.518711e-01
4.302175e-01
4.364163e-01
4.417573e-01
4.467786e-01
4.515859e-01
4.555441e-01
4.580001e-01
4.398009e-01
4.424239e-01
4.473175e-01
4.532383e-01
4.575567e-01
4.608191e-01
4.636670e-01
4.498840e-01
4.593583e-01
4.580719e-01
4.647949e-01
4.663086e-01
4.689090e-01
4.718472e-01
4.739316e-01
4.583688e-01
4.686732e-01
4.746650e-01
4.784356e-01
4.664585e-01
4.752036e-01
4.790264e-01
4.822697e-01
4.797527e-01
4.862124e-01
3.257068e-01
3.160866e-01
3.059019e-01
2.954789e-01
2.851832e-01
2.747332e-01
2.625633e-01
2.533177e-01
4.841825e-01
4.899684e-01
4.860724e-01
4.907715e-01
4.956039e-01
4.986127e-01
4.969108e-01
4.947165e-01
4.944142e-01
4.921322e-01
4.910141e-01
4.914650e-01
4.867769e-01
4.873186e-01
4.880814e-01
4.890499e-01
4.817475e-01
4.822703e-01
4.831248e-01
4.842220e-01
4.854894e-01
4.762988e-01
4.772375e-01
4.784657e-01
4.799241e-01
4.815097e-01
4.752785e-01
4.771803e-01
4.693391e-01
4.704009e-01
4.717466e-01
4.734071e-01
4.614406e-01
4.626112e-01
4.640298e-01
4.658796e-01
4.680996e-01
4.704058e-01
4.725092e-01
4.528227e-01
4.539305e-01
4.552953e-01
4.572528e-01
4.598867e-01
4.627777e-01
4.653433e-01
4.671940e-01
4.345091e-01
4.352290e-01
4.445073e-01
4.455923e-01
4.473656e-01
4.505810e-01
4.539954e-01
4.579867e-01
4.588124e-01
4.617246e-01
4.363464e-01
4.451340e-01
4.305138e-01
2.820603e-01
3.035354e-01
2.914876e-01
3.080389e-01
3.022856e-01
3.235353e-01
3.195485e-01
3.135726e-01
3.433592e-01
3.361447e-01
3.416417e-01
3.320094e-01
3.220147e-01
3.118223e-01
3.015501e-01
2.911093e-01
2.802193e-01
2.697871e-01
2.594822e-01
3.304931e-01
3.246359e-01
3.607150e-01
3.534011e-01
3.469696e-01
3.411053e-01
3.353899e-01
3.700075e-01
3.632333e-01
3.571328e-01
3.514026e-01
3.458287e-01
3.858650e-01
3.789534e-01
3.726817e-01
3.669219e-01
3.614149e-01
3.559541e-01
4.006333e-01
3.939820e-01
3.876016e-01
3.818464e-01
3.764625e-01
3.711715e-01
3.657382e-01
4.139378e-01
4.083605e-01
4.017555e-01
3.960600e-01
3.908264e-01
3.858516e-01
3.806298e-01
3.750872e-01
4.248846e-01
4.228599e-01
4.149452e-01
4.095258e-01
4.043176e-01
3.998399e-01
3.950833e-01
3.895482e-01
3.839475e-01
4.575106e-01
4.501253e-01
4.407970e-01
4.302265e-01
4.184919e-01
4.057932e-01
3.923623e-01
4.481034e-01
4.378861e-01
4.264077e-01
4.133563e-01
4.003041e-01
2.520246e-01
2.506563e-01
2.531316e-01
2.664764e-01
2.623157e-01
2.700887e-01
2.809208e-01
2.515570e-01
2.637409e-01
2.748479e-01
2.845436e-01
2.949828e-01
2.523767e-01
2.651804e-01
2.770546e-01
2.880767e-01
2.984188e-01
3.087687e-01
3.576955e-01
3.477760e-01
3.378060e-01
3.277918e-01
3.176781e-01
3.073949e-01
2.968606e-01
2.862262e-01
2.752894e-01
2.630199e-01
2.526339e-01
2.490485e-01
2.558143e-01
2.671823e-01
2.790319e-01
2.905243e-01
3.015035e-01
3.120724e-01
3.223814e-01
2.482532e-01
2.515876e-01
2.619193e-01
2.708259e-01
2.815257e-01
2.928029e-01
3.040032e-01
3.149230e-01
3.255763e-01
3.359401e-01
2.551434e-01
2.654039e-01
2.752972e-01
2.848472e-01
2.953854e-01
3.063765e-01
3.173792e-01
3.282150e-01
3.388889e-01
3.496303e-01
3.613064e-01
2.496925e-01
2.598628e-01
2.690960e-01
2.790873e-01
2.887306e-01
2.982840e-01
3.088697e-01
3.197166e-01
3.305735e-01
3.412789e-01
3.517950e-01
3.622959e-01
3.716594e-01
2.505932e-01
2.619987e-01
2.718195e-01
2.825244e-01
2.927258e-01
3.020628e-01
3.111191e-01
3.221159e-01
3.327756e-01
3.435523e-01
3.540904e-01
3.643725e-01
3.749524e-01
3.828683e-01
2.450951e-01
2.522770e-01
2.629649e-01
2.749498e-01
2.834490e-01
2.963850e-01
3.064634e-01
3.153554e-01
3.229230e-01
3.356146e-01
3.454455e-01
3.563656e-01
3.666352e-01
3.763937e-01
3.885138e-01
3.939916e-01
3.737456e-01
3.632655e-01
3.531898e-01
3.433638e-01
3.334884e-01
3.234314e-01
3.131290e-01
3.025775e-01
2.916746e-01
2.801830e-01
2.684750e-01
2.551579e-01
4.993451e-01
4.997717e-01
4.977840e-01
4.989439e-01
4.997122e-01
4.954259e-01
4.973147e-01
4.987294e-01
4.996591e-01
4.894386e-01
4.923912e-01
4.948882e-01
4.969572e-01
4.985585e-01
4.996132e-01
4.777915e-01
4.844510e-01
4.884323e-01
4.916292e-01
4.943470e-01
4.966167e-01
4.983880e-01
4.995649e-01
4.799406e-01
4.838824e-01
4.875505e-01
4.908670e-01
4.937784e-01
4.962392e-01
4.981802e-01
4.994955e-01
4.701597e-01
4.742244e-01
4.784162e-01
4.826086e-01
4.864935e-01
4.900117e-01
4.931167e-01
4.957543e-01
4.978556e-01
4.993313e-01
4.997194e-01
4.614047e-01
4.670593e-01
4.720414e-01
4.767712e-01
4.812171e-01
4.853129e-01
4.890181e-01
4.922862e-01
4.950508e-01
4.972141e-01
4.986492e-01
4.996283e-01
4.449622e-01
4.525317e-01
4.590341e-01
4.647736e-01
4.700834e-01
4.750664e-01
4.797070e-01
4.839735e-01
4.878313e-01
4.912351e-01
4.941308e-01
4.964741e-01
4.983058e-01
4.995446e-01
4.243018e-01
4.349004e-01
4.432488e-01
4.504727e-01
4.567746e-01
4.626038e-01
3.893494e-01
3.782639e-01
3.679598e-01
3.584415e-01
3.489108e-01
3.391585e-01
3.291211e-01
3.187736e-01
3.080690e-01
2.969290e-01
2.853830e-01
2.732740e-01
2.611456e-01
4.680935e-01
4.732415e-01
4.780238e-01
4.824219e-01
4.864064e-01
4.899513e-01
4.930626e-01
4.957523e-01
4.979779e-01
4.994602e-01
2.513011e-01
2.646136e-01
2.780262e-01
2.915563e-01
3.051739e-01
3.188226e-01
3.324308e-01
3.459179e-01
3.592022e-01
3.722250e-01
3.849970e-01
3.975091e-01
4.096759e-01
4.215696e-01
4.329065e-01
4.434829e-01
4.531865e-01
4.624616e-01
4.715328e-01
4.778622e-01
4.838507e-01
4.901575e-01
4.945373e-01
4.978848e-01
4.146875e-01
4.260648e-01
4.339194e-01
4.416709e-01
4.481821e-01
4.543942e-01
4.603507e-01
4.659790e-01
4.712255e-01
4.761027e-01
4.806052e-01
4.846660e-01
4.883409e-01
4.917435e-01
4.947350e-01
4.977925e-01
4.991910e-01
2.520207e-01
2.659077e-01
2.798633e-01
2.938721e-01
3.079019e-01
3.219019e-01
3.358098e-01
3.495585e-01
3.630867e-01
3.763472e-01
3.892980e-01
4.018804e-01
4.140276e-01
4.256663e-01
4.366868e-01
4.470228e-01
4.566294e-01
4.655017e-01
4.733842e-01
4.803370e-01
4.864516e-01
4.917419e-01
4.958808e-01
4.987718e-01
2.527171e-01
2.672171e-01
2.817208e-01
2.962262e-01
3.106986e-01
3.250846e-01
3.393213e-01
3.533448e-01
3.670939e-01
3.805105e-01
3.935343e-01
4.061000e-01
4.181395e-01
4.295851e-01
4.403735e-01
4.504500e-01
4.597582e-01
4.682340e-01
4.758201e-01
4.825213e-01
4.882968e-01
4.930823e-01
4.967462e-01
4.991327e-01
2.534207e-01
2.685429e-01
2.836442e-01
2.986995e-01
3.136542e-01
3.284451e-01
3.430086e-01
3.572818e-01
3.712033e-01
4.039735e-01
3.925594e-01
3.817420e-01
3.729015e-01
3.638784e-01
3.545217e-01
3.448138e-01
3.347464e-01
3.243109e-01
3.134904e-01
3.022788e-01
2.906440e-01
2.785759e-01
2.655265e-01
2.552798e-01
3.847123e-01
3.977478e-01
4.102476e-01
4.221501e-01
4.333974e-01
4.439377e-01
4.537208e-01
4.626966e-01
4.708211e-01
4.780623e-01
4.843893e-01
4.897516e-01
4.940861e-01
4.973075e-01
4.993137e-01
2.540550e-01
2.699286e-01
2.857468e-01
3.014213e-01
3.168814e-01
3.320680e-01
3.469263e-01
3.614025e-01
3.754410e-01
3.889877e-01
4.019886e-01
4.143860e-01
4.261207e-01
4.371396e-01
4.474001e-01
4.568597e-01
4.654787e-01
4.732263e-01
4.800767e-01
4.859936e-01
4.909334e-01
4.948510e-01
4.976973e-01
4.994240e-01
2.548967e-01
2.716877e-01
2.882930e-01
3.045899e-01
3.205214e-01
3.360495e-01
3.511363e-01
3.657467e-01
3.798370e-01
3.933700e-01
4.063006e-01
4.185664e-01
4.301001e-01
4.408482e-01
4.507906e-01
4.598908e-01
4.681193e-01
4.754589e-01
4.818968e-01
4.873949e-01
4.919236e-01
4.954631e-01
4.979939e-01
4.995038e-01
2.563783e-01
2.741998e-01
2.915599e-01
3.083904e-01
3.247054e-01
3.404825e-01
3.556844e-01
3.703286e-01
3.843898e-01
3.978790e-01
4.107284e-01
4.228468e-01
4.341497e-01
4.445615e-01
4.541392e-01
4.628307e-01
4.706405e-01
4.775505e-01
4.835709e-01
4.886436e-01
4.927791e-01
4.959834e-01
4.982450e-01
4.995727e-01
2.584516e-01
2.776721e-01
2.957166e-01
3.128992e-01
3.295608e-01
3.455033e-01
3.605611e-01
3.750529e-01
3.890058e-01
4.025669e-01
4.153325e-01
4.272965e-01
4.383903e-01
4.483299e-01
4.574555e-01
4.656356e-01
4.730997e-01
4.795700e-01
4.851458e-01
4.897375e-01
4.935268e-01
4.964664e-01
4.174392e-01
4.062142e-01
3.938143e-01
3.866981e-01
3.783555e-01
3.694692e-01
3.601553e-01
3.504244e-01
3.403031e-01
3.298195e-01
3.189830e-01
3.077886e-01
2.962600e-01
2.845022e-01
2.732909e-01
2.611772e-01
4.984989e-01
4.996490e-01
2.626319e-01
2.836552e-01
3.003880e-01
3.179873e-01
3.354387e-01
3.515940e-01
3.656288e-01
3.780694e-01
3.938556e-01
4.077060e-01
4.201298e-01
4.318804e-01
4.433472e-01
4.525259e-01
4.602036e-01
4.681101e-01
4.758710e-01
4.818652e-01
4.863470e-01
4.905671e-01
4.941643e-01
4.970291e-01
4.988803e-01
4.997069e-01
4.997140e-01
4.996026e-01
4.987584e-01
4.997363e-01
4.993203e-01
4.983484e-01
4.970536e-01
4.996072e-01
4.987698e-01
4.977394e-01
4.962751e-01
4.945599e-01
4.993756e-01
4.983382e-01
4.969570e-01
4.953318e-01
4.933804e-01
4.912307e-01
4.996221e-01
4.985918e-01
4.977074e-01
4.961690e-01
4.942569e-01
4.920786e-01
4.896473e-01
4.870313e-01
4.820172e-01
4.994945e-01
4.983877e-01
4.968481e-01
4.952200e-01
4.931196e-01
4.906678e-01
4.879662e-01
4.850730e-01
4.763053e-01
4.997341e-01
4.992444e-01
4.980187e-01
4.962859e-01
4.941953e-01
4.918817e-01
4.891917e-01
4.861879e-01
4.829848e-01
4.796733e-01
4.698782e-01
4.995802e-01
4.987033e-01
4.974733e-01
4.956217e-01
4.932970e-01
4.906233e-01
4.876642e-01
4.843770e-01
4.808013e-01
4.771219e-01
4.734570e-01
4.993288e-01
4.982562e-01
4.967542e-01
4.948094e-01
4.923318e-01
4.894137e-01
4.861382e-01
4.825542e-01
4.786715e-01
4.744623e-01
4.703539e-01
4.664086e-01
4.623732e-01
4.533715e-01
4.996624e-01
4.986706e-01
4.976856e-01
4.960457e-01
4.938932e-01
4.912629e-01
4.881574e-01
4.846391e-01
4.807468e-01
4.765484e-01
4.721029e-01
4.670376e-01
4.626652e-01
4.585872e-01
4.197098e-01
4.298614e-01
4.995470e-01
4.986076e-01
4.971035e-01
4.953147e-01
4.929815e-01
4.901391e-01
4.868323e-01
4.831036e-01
4.789894e-01
4.744464e-01
4.696391e-01
4.648335e-01
4.580436e-01
4.541488e-01
4.504147e-01
4.414208e-01
2.382000e-01
2.382000e-01
2.382000e-01
2.382000e-01
2.382000e-01
2.382000e-01
2.382000e-01
2.382000e-01
2.382000e-01
2.382000e-01
2.382000e-01
2.382000e-01
2.382000e-01
2.382000e-01
2.382000e-01
2.382000e-01
2.382000e-01
2.382000e-01
2.382000e-01
2.382000e-01
2.382000e-01
2.382000e-01
2.382000e-01
2.382000e-01
2.382000e-01
2.382000e-01
2.382000e-01
2.382000e-01
2.382000e-01
2.382000e-01
2.382000e-01
2.382000e-01
2.382000e-01
2.382000e-01
2.382000e-01
2.382000e-01
2.382000e-01
2.382000e-01
2.382000e-01
2.382000e-01
2.382000e-01
2.382000e-01
2.382000e-01
2.382000e-01
2.382000e-01
2.382000e-01
2.382000e-01
2.382000e-01
2.382000e-01
2.382000e-01
2.382000e-01
2.382000e-01
2.382000e-01
2.382000e-01
2.382000e-01
2.382000e-01
2.382000e-01
2.382000e-01
2.382000e-01
2.382000e-01
2.382000e-01
2.382000e-01
2.382000e-01
2.382000e-01
2.382000e-01
2.382000e-01
2.382000e-01
2.382000e-01
2.382000e-01
2.382000e-01
2.382000e-01
2.382000e-01
2.382000e-01
2.382000e-01
2.382000e-01
2.382000e-01
2.382000e-01
2.382000e-01
2.382000e-01
2.382000e-01
2.382000e-01
2.382000e-01
2.382000e-01
2.382000e-01
2.382000e-01
2.382000e-01
2.382000e-01
2.382000e-01
2.382000e-01
2.382000e-01
2.382000e-01
2.382000e-01
2.382000e-01
2.382000e-01
2.382000e-01
2.382000e-01
2.382000e-01
2.382000e-01
2.382000e-01
2.382000e-01
2.382000e-01
2.382000e-01
2.382000e-01
2.382000e-01
2.382000e-01
2.382000e-01
2.382000e-01
2.382000e-01
2.382000e-01
2.382000e-01
2.382000e-01
2.382000e-01
2.382000e-01
2.382000e-01
2.382000e-01
2.382000e-01
2.382000e-01
2.382000e-01
2.382000e-01
2.382000e-01
2.382000e-01
2.382000e-01
2.382000e-01
2.382000e-01
2.382000e-01
2.382000e-01
2.382000e-01
2.382000e-01
2.382000e-01
2.382000e-01
2.382000e-01
2.382000e-01
2.382000e-01
2.382000e-01
2.382000e-01
2.382000e-01
2.382000e-01
2.382000e-01
2.382000e-01
2.382000e-01
2.382000e-01
2.382000e-01
2.382000e-01
2.382000e-01
2.382000e-01
2.382000e-01
2.382000e-01
2.382000e-01
2.382000e-01
2.382000e-01
2.382000e-01
2.382000e-01
2.382000e-01
2.382000e-01
2.382000e-01
2.382000e-01
2.382000e-01
2.382000e-01
2.382000e-01
2.382000e-01
2.382000e-01
2.382000e-01
2.382000e-01
2.382000e-01
2.382000e-01
2.382000e-01
2.382000e-01
2.382000e-01
2.382000e-01
2.382000e-01
2.382000e-01
2.382000e-01
2.382000e-01
2.382000e-01
2.382000e-01
2.382000e-01
2.382000e-01
2.382000e-01
2.382000e-01
2.382000e-01
2.382000e-01
2.382000e-01
2.382000e-01
2.382000e-01
2.382000e-01
2.382000e-01
2.382000e-01
2.382000e-01
2.382000e-01
2.382000e-01
2.382000e-01
2.382000e-01
2.382000e-01
2.382000e-01
2.382000e-01
2.382000e-01
2.382000e-01
2.382000e-01
2.382000e-01
2.382000e-01
2.382000e-01
2.382000e-01
2.382000e-01
2.382000e-01
2.382000e-01
2.382000e-01
2.382000e-01
2.382000e-01
2.382000e-01
2.382000e-01
2.382000e-01
2.382000e-01
2.382000e-01
2.382000e-01
2.382000e-01
2.382000e-01
2.382000e-01
2.382000e-01
2.382000e-01
2.382000e-01
2.382000e-01
2.382000e-01
2.382000e-01
2.382000e-01
2.382000e-01
2.382000e-01
2.382000e-01
2.382000e-01
2.382000e-01
2.382000e-01
2.382000e-01
2.382000e-01
2.382000e-01
2.382000e-01
2.382000e-01
2.382000e-01
2.382000e-01
2.382000e-01
2.382000e-01
2.382000e-01
2.382000e-01
2.382000e-01
2.382000e-01
2.382000e-01
2.382000e-01
2.382000e-01
2.382000e-01
2.382000e-01
2.382000e-01
2.382000e-01
2.382000e-01
2.382000e-01
2.382000e-01
2.382000e-01
2.382000e-01
2.382000e-01
2.382000e-01
2.382000e-01
2.382000e-01
2.382000e-01
2.382000e-01
2.382000e-01
2.382000e-01
2.382000e-01
2.382000e-01
2.382000e-01
2.382000e-01
2.382000e-01
2.382000e-01
2.382000e-01
2.382000e-01
2.382000e-01
2.382000e-01
2.382000e-01
2.382000e-01
2.382000e-01
2.382000e-01
2.382000e-01
2.382000e-01
2.382000e-01
2.382000e-01
2.382000e-01
2.382000e-01
2.382000e-01
2.382000e-01
2.382000e-01
2.382000e-01
2.382000e-01
2.382000e-01
2.382000e-01
2.382000e-01
2.382000e-01
2.382000e-01
2.382000e-01
2.382000e-01
2.382000e-01
2.382000e-01
2.382000e-01
2.382000e-01
2.382000e-01
2.382000e-01
2.382000e-01
2.382000e-01
2.382000e-01
2.382000e-01
2.382000e-01
2.382000e-01
2.382000e-01
2.382000e-01
2.382000e-01
2.382000e-01
2.382000e-01
2.382000e-01
2.382000e-01
2.382000e-01
2.382000e-01
2.382000e-01
2.382000e-01
2.382000e-01
2.382000e-01
2.382000e-01
2.382000e-01
2.382000e-01
2.382000e-01
2.382000e-01
2.382000e-01
2.382000e-01
2.382000e-01
2.382000e-01
2.382000e-01
2.382000e-01
2.382000e-01
2.382000e-01
2.382000e-01
2.382000e-01
2.382000e-01
2.382000e-01
2.382000e-01
2.382000e-01
2.382000e-01
2.382000e-01
2.382000e-01
2.382000e-01
2.382000e-01
2.382000e-01
2.382000e-01
2.382000e-01
2.382000e-01
2.382000e-01
2.382000e-01
2.382000e-01
2.382000e-01
2.382000e-01
2.382000e-01
2.382000e-01
2.382000e-01
2.382000e-01
2.382000e-01
2.382000e-01
2.382000e-01
2.382000e-01
2.382000e-01
2.382000e-01
2.382000e-01
2.382000e-01
2.382000e-01
2.382000e-01
2.382000e-01
2.382000e-01
2.382000e-01
3.882000e-01
3.882000e-01
3.882000e-01
3.882000e-01
3.882000e-01
3.882000e-01
3.882000e-01
3.882000e-01
3.882000e-01
3.882000e-01
3.882000e-01
3.882000e-01
3.882000e-01
3.882000e-01
3.882000e-01
3.882000e-01
3.882000e-01
3.882000e-01
3.882000e-01
3.882000e-01
3.882000e-01
3.882000e-01
3.882000e-01
3.882000e-01
3.882000e-01
3.882000e-01
3.882000e-01
3.882000e-01
3.882000e-01
3.882000e-01
3.882000e-01
3.882000e-01
3.882000e-01
3.498850e-01
3.440235e-01
3.591881e-01
3.485930e-01
3.526415e-01
3.409891e-01
3.400904e-01
3.352734e-01
3.312623e-01
3.463443e-01
3.388506e-01
3.329783e-01
3.425625e-01
3.310426e-01
3.389923e-01
2.620713e-01
3.868591e-01
3.847344e-01
3.801628e-01
3.820725e-01
3.805706e-01
3.765409e-01
3.806187e-01
3.779136e-01
3.751531e-01
3.752827e-01
3.719025e-01
3.683189e-01
3.717470e-01
3.681630e-01
3.645415e-01
3.603100e-01
3.848514e-01
3.676632e-01
3.636916e-01
3.596041e-01
3.571194e-01
3.511996e-01
3.467117e-01
3.511366e-01
3.407887e-01
3.638630e-01
3.554943e-01
3.872472e-01
3.455255e-01
3.331222e-01
3.403391e-01
3.346843e-01
3.291210e-01
3.246857e-01
3.221938e-01
3.267831e-01
3.211751e-01
3.164919e-01
3.128634e-01
3.185331e-01
3.115713e-01
3.068974e-01
3.027679e-01
2.996191e-01
2.959171e-01
2.918958e-01
2.842790e-01
2.801938e-01
2.662989e-01
3.104000e-01
2.941482e-01
2.805225e-01
2.697666e-01
2.568329e-01
3.802567e-01
3.767272e-01
3.876815e-01
3.858434e-01
3.869250e-01
3.829170e-01
3.844277e-01
3.810447e-01
3.770733e-01
3.812772e-01
3.841194e-01
3.867240e-01
2.874188e-01
2.755468e-01
2.583988e-01
2.865803e-01
2.701312e-01
2.518160e-01
3.800665e-01
3.765642e-01
3.876075e-01
3.857261e-01
3.867940e-01
3.828352e-01
3.842608e-01
3.808576e-01
3.768842e-01
2.862979e-01
2.748514e-01
2.594332e-01
2.876832e-01
2.707143e-01
2.518678e-01
3.875597e-01
3.855908e-01
3.866224e-01
3.826410e-01
3.839689e-01
3.805953e-01
3.768501e-01
2.882929e-01
2.760359e-01
2.593066e-01
3.873918e-01
3.848631e-01
3.822807e-01
3.803332e-01
3.779483e-01
3.769342e-01
3.706766e-01
2.878843e-01
2.724642e-01
2.528617e-01
3.143586e-01
3.000233e-01
2.847161e-01
2.662060e-01
2.516464e-01
3.804904e-01
3.771162e-01
3.876355e-01
3.857871e-01
3.868022e-01
3.828911e-01
3.842960e-01
3.808133e-01
3.768659e-01
2.897162e-01
2.774718e-01
2.602746e-01
2.873766e-01
2.713753e-01
3.672308e-01
3.747046e-01
3.792129e-01
3.826025e-01
2.522286e-01
3.875715e-01
3.857371e-01
3.830806e-01
2.894366e-01
2.770167e-01
2.591900e-01
3.784556e-01
3.745614e-01
3.873640e-01
3.851535e-01
3.863646e-01
3.819548e-01
3.832819e-01
3.776941e-01
3.791088e-01
3.722133e-01
3.744955e-01
3.093467e-01
2.959697e-01
2.828189e-01
2.698190e-01
2.551956e-01
2.819889e-01
2.667901e-01
2.504218e-01
3.873280e-01
3.849014e-01
3.859929e-01
3.814306e-01
3.829717e-01
3.793314e-01
3.752622e-01
3.561684e-01
2.842259e-01
2.730734e-01
2.571408e-01
3.877069e-01
3.852419e-01
3.818367e-01
3.793356e-01
3.768282e-01
3.756083e-01
3.687156e-01
2.850613e-01
2.697027e-01
2.516030e-01
3.110004e-01
2.970527e-01
2.822248e-01
2.644283e-01
2.506569e-01
3.789481e-01
3.751869e-01
3.874278e-01
3.852636e-01
3.864723e-01
3.820700e-01
3.835323e-01
3.795496e-01
3.751770e-01
2.868084e-01
2.749114e-01
2.584701e-01
2.835175e-01
2.684832e-01
2.509041e-01
3.790098e-01
3.753119e-01
3.874217e-01
3.477479e-01
3.851617e-01
3.864191e-01
3.818386e-01
3.835053e-01
3.797536e-01
3.755001e-01
2.841442e-01
2.722912e-01
2.567310e-01
2.819489e-01
2.670878e-01
2.502050e-01
3.873517e-01
3.849445e-01
3.860173e-01
3.815717e-01
3.826382e-01
3.781860e-01
3.736891e-01
2.828159e-01
2.715350e-01
2.556585e-01
3.870988e-01
3.851920e-01
3.826681e-01
3.770539e-01
3.779583e-01
3.729390e-01
3.699334e-01
2.819769e-01
2.668090e-01
2.499412e-01
3.136181e-01
3.003084e-01
2.801804e-01
2.668275e-01
2.544197e-01
3.871822e-01
3.842234e-01
3.847947e-01
3.652706e-01
3.722354e-01
3.772698e-01
3.808607e-01
3.831192e-01
3.860153e-01
3.801062e-01
3.811160e-01
3.765535e-01
3.718641e-01
2.817864e-01
2.707361e-01
2.557692e-01
3.870791e-01
3.830565e-01
3.768609e-01
3.725204e-01
3.669264e-01
2.822951e-01
2.667491e-01
2.499542e-01
2.545462e-01
3.810887e-01
3.788346e-01
3.749683e-01
3.745800e-01
3.680366e-01
3.665254e-01
3.684665e-01
3.613994e-01
3.533681e-01
3.561966e-01
3.595812e-01
3.615729e-01
3.452767e-01
3.494485e-01
3.532738e-01
3.517014e-01
3.249062e-01
3.157313e-01
3.087827e-01
3.017983e-01
2.936091e-01
2.837806e-01
2.728516e-01
2.645136e-01
2.546026e-01
2.710238e-01
2.765254e-01
2.863723e-01
2.869942e-01
3.031023e-01
2.992472e-01
2.963313e-01
3.130341e-01
3.087697e-01
3.051850e-01
3.128912e-01
3.262031e-01
3.210826e-01
3.167176e-01
3.378719e-01
3.329764e-01
3.277848e-01
3.237092e-01
3.201722e-01
3.449954e-01
3.278128e-01
3.355274e-01
3.389068e-01
3.849743e-01
2.530653e-01
3.869444e-01
3.867933e-01
3.854819e-01
3.831923e-01
3.876142e-01
3.787957e-01
3.768196e-01
3.740640e-01
3.489859e-01
3.551926e-01
3.633354e-01
3.702518e-01
3.756302e-01
3.796178e-01
3.826532e-01
3.855367e-01
3.876849e-01
3.864835e-01
3.843658e-01
3.811352e-01
3.641183e-01
3.874629e-01
3.859046e-01
3.836276e-01
3.802634e-01
3.763405e-01
3.726011e-01
3.687840e-01
3.878590e-01
3.870340e-01
3.848479e-01
3.831598e-01
3.789972e-01
3.746986e-01
3.707900e-01
3.676258e-01
3.613172e-01
3.554877e-01
2.575622e-01
2.487946e-01
2.872232e-01
2.779973e-01
2.666064e-01
2.553840e-01
2.895771e-01
2.742978e-01
3.247020e-01
3.187550e-01
3.090984e-01
2.953158e-01
2.834189e-01
2.720085e-01
2.607903e-01
2.510336e-01
3.092822e-01
2.983635e-01
3.785173e-01
3.729566e-01
3.667145e-01
3.586664e-01
3.489403e-01
3.373683e-01
3.246926e-01
3.876087e-01
3.862259e-01
3.830830e-01
3.782564e-01
3.720654e-01
3.637861e-01
3.548910e-01
3.446512e-01
3.334544e-01
3.239315e-01
3.126577e-01
3.014189e-01
2.891208e-01
2.722697e-01
2.573796e-01
3.369851e-01
3.294319e-01
3.206631e-01
3.102552e-01
2.990348e-01
2.878579e-01
2.765456e-01
2.652436e-01
2.545096e-01
2.500713e-01
3.686987e-01
3.622742e-01
3.534336e-01
3.425442e-01
2.745963e-01
2.692301e-01
2.552881e-01
3.275767e-01
3.139054e-01
2.991694e-01
2.844411e-01
2.691147e-01
2.559678e-01
3.784543e-01
3.729177e-01
3.664579e-01
3.579130e-01
3.480994e-01
3.370683e-01
3.249390e-01
3.111458e-01
2.972926e-01
2.837220e-01
3.874988e-01
3.861122e-01
3.830931e-01
3.788782e-01
3.725120e-01
3.626298e-01
3.531901e-01
3.425640e-01
3.309777e-01
3.199919e-01
3.875017e-01
3.853141e-01
3.821911e-01
3.788012e-01
3.738469e-01