VARIABLES = "X" "Y" "Z" "FREF"
ZONE T="instant 038"
STRANDID=0, SOLUTIONTIME=0
Nodes=3151, Elements=6298
ZONETYPE=FETriangle
DATAPACKING=BLOCK
VARLOCATION = ([1-3]=NODAL, [4]=CELLCENTERED)
5.000000e-01
1.384965e-01
1.559952e-01
1.726941e-01
1.888291e-01
2.076331e-01
2.281294e-01
2.500966e-01
2.735644e-01
2.980559e-01
3.228179e-01
3.465884e-01
3.691898e-01
3.908595e-01
4.107303e-01
4.279269e-01
4.421557e-01
4.529286e-01
4.626083e-01
4.724227e-01
4.808878e-01
4.876299e-01
4.926385e-01
4.962699e-01
4.985715e-01
4.997301e-01
1.238000e-01
1.238000e-01
1.238000e-01
1.238000e-01
1.238000e-01
1.238000e-01
1.238000e-01
1.238000e-01
1.238000e-01
1.238000e-01
1.238000e-01
1.238000e-01
2.731403e-01
2.715719e-01
2.681167e-01
2.626804e-01
2.562960e-01
2.512510e-01
2.447203e-01
2.365297e-01
2.280429e-01
2.200110e-01
2.111925e-01
2.014110e-01
1.927676e-01
1.847212e-01
1.766218e-01
1.669707e-01
1.575492e-01
1.502098e-01
1.418560e-01
1.329521e-01
2.738000e-01
4.799574e-01
4.548158e-01
4.332501e-01
4.115926e-01
3.863297e-01
3.616243e-01
3.406831e-01
3.212963e-01
3.028242e-01
2.868144e-01
3.251818e-01
1.621001e-01
1.518348e-01
3.384808e-01
3.165907e-01
1.665839e-01
1.765755e-01
1.585161e-01
1.796515e-01
1.412121e-01
1.807053e-01
1.673712e-01
1.848575e-01
1.974500e-01
4.817928e-01
2.113458e-01
2.297048e-01
2.041620e-01
2.169067e-01
2.665613e-01
2.813194e-01
3.182054e-01
2.976481e-01
3.014190e-01
3.307683e-01
3.486031e-01
3.249945e-01
4.734297e-01
4.602237e-01
3.387595e-01
3.616403e-01
3.543656e-01
3.769860e-01
3.736598e-01
3.859501e-01
2.859291e-01
3.139354e-01
3.000476e-01
2.802061e-01
1.602084e-01
1.460149e-01
1.384129e-01
1.395705e-01
1.392699e-01
1.550611e-01
1.709130e-01
1.398892e-01
1.557216e-01
1.718939e-01
1.894091e-01
1.328526e-01
1.434922e-01
1.573663e-01
1.731822e-01
4.777762e-01
1.900633e-01
2.085292e-01
2.087519e-01
2.287847e-01
2.108208e-01
2.279418e-01
2.496654e-01
1.399054e-01
1.567032e-01
1.736838e-01
1.917562e-01
1.869933e-01
1.851449e-01
1.952287e-01
2.044930e-01
2.255596e-01
2.427056e-01
2.545878e-01
2.711572e-01
1.378707e-01
1.538482e-01
1.712336e-01
1.909684e-01
2.081405e-01
2.242002e-01
2.439049e-01
2.271088e-01
2.408289e-01
2.459857e-01
2.614666e-01
2.781803e-01
2.985973e-01
2.027086e-01
2.168850e-01
2.319967e-01
2.627982e-01
4.706671e-01
4.569976e-01
4.458492e-01
4.327254e-01
2.813683e-01
3.007034e-01
3.225462e-01
2.095201e-01
2.473063e-01
2.645021e-01
2.838707e-01
3.019463e-01
3.221946e-01
3.447763e-01
2.244151e-01
2.404358e-01
2.583405e-01
2.675567e-01
2.864012e-01
3.084267e-01
4.631103e-01
4.472758e-01
4.333211e-01
4.200578e-01
4.050711e-01
3.215791e-01
3.420480e-01
3.654498e-01
2.834335e-01
3.061064e-01
3.353609e-01
3.596653e-01
3.845535e-01
2.294132e-01
2.452968e-01
2.627756e-01
2.827075e-01
3.293429e-01
3.534008e-01
3.776508e-01
4.024188e-01
3.042903e-01
3.264108e-01
3.485306e-01
3.717785e-01
3.949162e-01
4.188494e-01
4.011025e-01
4.180915e-01
2.475395e-01
2.642056e-01
2.828796e-01
3.037195e-01
3.260060e-01
3.477237e-01
3.664345e-01
3.905968e-01
4.110683e-01
4.344741e-01
3.491942e-01
3.595663e-01
4.545451e-01
4.379628e-01
4.230775e-01
4.091682e-01
3.955498e-01
3.821523e-01
3.678892e-01
3.718737e-01
3.853579e-01
3.991057e-01
4.123852e-01
4.280250e-01
4.449566e-01
1.238000e-01
4.996220e-01
4.976196e-01
4.941164e-01
4.891045e-01
4.811526e-01
4.717852e-01
4.599135e-01
4.454024e-01
4.269398e-01
4.072361e-01
3.890881e-01
3.691637e-01
3.472723e-01
3.244950e-01
3.049611e-01
2.884917e-01
2.718999e-01
2.535051e-01
2.342023e-01
2.152581e-01
1.970887e-01
1.798039e-01
1.636795e-01
1.488437e-01
1.354480e-01
5.000000e-01
2.869043e-01
3.032680e-01
3.224832e-01
3.444683e-01
3.660248e-01
3.873848e-01
4.097258e-01
4.348117e-01
4.606741e-01
4.829802e-01
2.738000e-01
1.324845e-01
1.412681e-01
1.514827e-01
1.630743e-01
1.733266e-01
1.831850e-01
1.932427e-01
2.031992e-01
2.120551e-01
2.190719e-01
2.277417e-01
2.358174e-01
2.422663e-01
2.475824e-01
2.526433e-01
2.591240e-01
2.640312e-01
2.669111e-01
2.693619e-01
2.717103e-01
2.733093e-01
1.238000e-01
1.238000e-01
1.238000e-01
1.238000e-01
1.238000e-01
1.238000e-01
1.238000e-01
1.238000e-01
1.238000e-01
1.238000e-01
1.238000e-01
3.229858e-01
3.601002e-01
1.595331e-01
1.885001e-01
1.814791e-01
2.851788e-01
2.931217e-01
3.075478e-01
3.078083e-01
3.314235e-01
3.318567e-01
3.411915e-01
3.219171e-01
3.953972e-01
1.371770e-01
3.745745e-01
3.503710e-01
3.810493e-01
3.329688e-01
3.685481e-01
3.524161e-01
3.896527e-01
3.735891e-01
1.417963e-01
1.842644e-01
1.623249e-01
1.519480e-01
1.405263e-01
1.810377e-01
2.087106e-01
1.755718e-01
2.104906e-01
1.971982e-01
2.234931e-01
2.095016e-01
2.356674e-01
2.506865e-01
1.458208e-01
2.882604e-01
1.403781e-01
1.497259e-01
1.644798e-01
2.783280e-01
2.943989e-01
3.089833e-01
4.754285e-01
4.499693e-01
4.637672e-01
4.733632e-01
4.146851e-01
4.263603e-01
4.375126e-01
4.488562e-01
1.669703e-01
1.550303e-01
1.390476e-01
4.633559e-01
4.120060e-01
4.228413e-01
4.345129e-01
4.554436e-01
3.974480e-01
4.021574e-01
4.329723e-01
4.443051e-01
2.781676e-01
2.875373e-01
2.993537e-01
3.793679e-01
3.976702e-01
4.242736e-01
3.541532e-01
3.781971e-01
3.865798e-01
3.974497e-01
4.064777e-01
4.122574e-01
4.178840e-01
2.631242e-01
3.124776e-01
3.320554e-01
3.582955e-01
3.727037e-01
3.916847e-01
4.107093e-01
2.679276e-01
2.763155e-01
2.876567e-01
3.466793e-01
3.640626e-01
1.834996e-01
1.712470e-01
3.799354e-01
3.947869e-01
2.476508e-01
3.014015e-01
3.168995e-01
3.404485e-01
3.523421e-01
3.653937e-01
3.775809e-01
2.534629e-01
2.615080e-01
2.723292e-01
3.253442e-01
3.382780e-01
3.490735e-01
3.594187e-01
2.837825e-01
2.001811e-01
1.856332e-01
1.699252e-01
1.548201e-01
1.396980e-01
2.942789e-01
3.147065e-01
3.223716e-01
3.313382e-01
3.400294e-01
2.280531e-01
2.349988e-01
2.440022e-01
2.546095e-01
2.964656e-01
3.045142e-01
3.129682e-01
3.199593e-01
2.628936e-01
2.698513e-01
2.780639e-01
2.874695e-01
2.950597e-01
2.996589e-01
1.414709e-01
1.593928e-01
1.813069e-01
2.000989e-01
2.187219e-01
2.375142e-01
2.564854e-01
2.060113e-01
2.121107e-01
2.299115e-01
2.348258e-01
2.414326e-01
2.510246e-01
2.617704e-01
2.736261e-01
2.754602e-01
2.779525e-01
2.179578e-01
2.023535e-01
1.872920e-01
1.726314e-01
1.579468e-01
1.410366e-01
2.232042e-01
2.384738e-01
2.557664e-01
1.927763e-01
2.055404e-01
2.202430e-01
2.365925e-01
5.000000e-01
5.000000e-01
5.000000e-01
5.000000e-01
5.000000e-01
5.000000e-01
5.000000e-01
5.000000e-01
5.000000e-01
5.000000e-01
5.000000e-01
5.000000e-01
5.000000e-01
5.000000e-01
5.000000e-01
5.000000e-01
5.000000e-01
5.000000e-01
5.000000e-01
5.000000e-01
5.000000e-01
5.000000e-01
5.000000e-01
5.000000e-01
5.000000e-01
5.000000e-01
5.000000e-01
5.000000e-01
5.000000e-01
5.000000e-01
5.000000e-01
5.000000e-01
5.000000e-01
1.238000e-01
1.238000e-01
1.238000e-01
1.238000e-01
1.238000e-01
1.238000e-01
1.238000e-01
1.238000e-01
1.238000e-01
1.238000e-01
1.238000e-01
1.238000e-01
1.238000e-01
1.238000e-01
1.238000e-01
1.238000e-01
1.238000e-01
1.238000e-01
1.238000e-01
1.238000e-01
1.238000e-01
1.238000e-01
1.238000e-01
1.238000e-01
1.238000e-01
1.238000e-01
1.238000e-01
1.238000e-01
1.238000e-01
1.238000e-01
1.238000e-01
1.238000e-01
1.238000e-01
3.357272e-01
3.492135e-01
3.437650e-01
3.567352e-01
3.702754e-01
3.932562e-01
3.695508e-01
3.795852e-01
2.909129e-01
3.025703e-01
3.127937e-01
3.136415e-01
3.234159e-01
3.310328e-01
3.376432e-01
3.679208e-01
3.466543e-01
3.351868e-01
3.558266e-01
3.763386e-01
3.249657e-01
3.249107e-01
1.438823e-01
1.357419e-01
3.428835e-01
3.634889e-01
3.840826e-01
3.629294e-01
3.762179e-01
3.896781e-01
3.819029e-01
3.941340e-01
3.993236e-01
4.226644e-01
3.770013e-01
3.919566e-01
3.693398e-01
3.994282e-01
3.798508e-01
3.596215e-01
4.061463e-01
3.871748e-01
3.698178e-01
3.519275e-01
4.039043e-01
4.182881e-01
4.146656e-01
3.998748e-01
3.880471e-01
1.610487e-01
1.504177e-01
1.384990e-01
3.443916e-01
3.574354e-01
3.685127e-01
3.344711e-01
3.469116e-01
3.243610e-01
1.364962e-01
1.463658e-01
1.488279e-01
1.590432e-01
1.623208e-01
1.708872e-01
1.739343e-01
1.775259e-01
1.781750e-01
1.853465e-01
1.898744e-01
1.940254e-01
1.950794e-01
2.018802e-01
2.070883e-01
2.117432e-01
2.057471e-01
2.132510e-01
2.197930e-01
2.253408e-01
2.303691e-01
2.180148e-01
2.251884e-01
2.323366e-01
2.387674e-01
2.444349e-01
2.496719e-01
2.299227e-01
1.783321e-01
1.668596e-01
1.552023e-01
1.436076e-01
1.367605e-01
2.376451e-01
2.451166e-01
2.521420e-01
2.584874e-01
2.640711e-01
2.693315e-01
2.494930e-01
2.579450e-01
2.655497e-01
2.724796e-01
2.787417e-01
2.838681e-01
2.889589e-01
2.608613e-01
2.702736e-01
2.789931e-01
2.863177e-01
2.931317e-01
2.995573e-01
3.031228e-01
3.081259e-01
2.719324e-01
2.818793e-01
2.916934e-01
3.008765e-01
3.067796e-01
3.139220e-01
3.223387e-01
3.198503e-01
3.273927e-01
3.450974e-01
3.957120e-01
3.189773e-01
3.373956e-01
3.582923e-01
1.965451e-01
1.847385e-01
1.728086e-01
1.614145e-01
1.518793e-01
1.421517e-01
3.795087e-01
3.062349e-01
3.262016e-01
3.477584e-01
3.696117e-01
3.882967e-01
4.048786e-01
3.466424e-01
3.589806e-01
3.656231e-01
3.733060e-01
3.798742e-01
3.879597e-01
3.963965e-01
4.050989e-01
4.061681e-01
4.103956e-01
4.150653e-01
4.175400e-01
4.210388e-01
4.251704e-01
3.877662e-01
3.982729e-01
4.069322e-01
4.155306e-01
4.239584e-01
4.304447e-01
4.346974e-01
4.035744e-01
4.081748e-01
4.158570e-01
4.252949e-01
4.330517e-01
4.387144e-01
4.434310e-01
4.198803e-01
4.349147e-01
4.328284e-01
4.442380e-01
4.473063e-01
4.515789e-01
4.558216e-01
4.593381e-01
4.334402e-01
4.500911e-01
4.600734e-01
4.661388e-01
4.463361e-01
4.606547e-01
4.669907e-01
4.721376e-01
4.681047e-01
4.783232e-01
2.161617e-01
2.038062e-01
1.914665e-01
1.795696e-01
1.685494e-01
1.577542e-01
1.455096e-01
1.376892e-01
4.750960e-01
4.840410e-01
4.778249e-01
4.851343e-01
4.928062e-01
4.978677e-01
4.951495e-01
4.915690e-01
4.911137e-01
4.872529e-01
4.855545e-01
4.862999e-01
4.786533e-01
4.795405e-01
4.806694e-01
4.820546e-01
4.705193e-01
4.712931e-01
4.725605e-01
4.741575e-01
4.759920e-01
4.614539e-01
4.628614e-01
4.646958e-01
4.668352e-01
4.691587e-01
4.588490e-01
4.616764e-01
4.497202e-01
4.514822e-01
4.535867e-01
4.560893e-01
4.364354e-01
4.384004e-01
4.407262e-01
4.436235e-01
4.469756e-01
4.504045e-01
4.536104e-01
4.222168e-01
4.237789e-01
4.260278e-01
4.292197e-01
4.332932e-01
4.378159e-01
4.416390e-01
4.447093e-01
3.910098e-01
3.920294e-01
4.078877e-01
4.095108e-01
4.124946e-01
4.174853e-01
4.231379e-01
4.297399e-01
4.309279e-01
4.351777e-01
3.892187e-01
4.041589e-01
3.782172e-01
1.707381e-01
1.962627e-01
1.812722e-01
2.014674e-01
1.935073e-01
2.220054e-01
2.156570e-01
2.070959e-01
2.493071e-01
2.385890e-01
2.370911e-01
2.240415e-01
2.111639e-01
1.986870e-01
1.867698e-01
1.751826e-01
1.635848e-01
1.534124e-01
1.430455e-01
2.296812e-01
2.208122e-01
2.740809e-01
2.632560e-01
2.530405e-01
2.435604e-01
2.344753e-01
2.881202e-01
2.771018e-01
2.669070e-01
2.572907e-01
2.480683e-01
3.127963e-01
3.012096e-01
2.905184e-01
2.804984e-01
2.709205e-01
2.616175e-01
3.364198e-01
3.248592e-01
3.139128e-01
3.036994e-01
2.939869e-01
2.845103e-01
2.751175e-01
3.579678e-01
3.478212e-01
3.366514e-01
3.264333e-01
3.168430e-01
3.075147e-01
2.980694e-01
2.884975e-01
3.755191e-01
3.716729e-01
3.582727e-01
3.482933e-01
3.389424e-01
3.302351e-01
3.211566e-01
3.114434e-01
3.016019e-01
4.270721e-01
4.141657e-01
3.980658e-01
3.797441e-01
3.589339e-01
3.367040e-01
3.142251e-01
4.097094e-01
3.924409e-01
3.724887e-01
3.484547e-01
3.260328e-01
1.374518e-01
1.354821e-01
1.382237e-01
1.521691e-01
1.474004e-01
1.558728e-01
1.680012e-01
1.367416e-01
1.490260e-01
1.609276e-01
1.722203e-01
1.847842e-01
1.377029e-01
1.508413e-01
1.635284e-01
1.763816e-01
1.891663e-01
2.024740e-01
2.591699e-01
2.452500e-01
2.317899e-01
2.188052e-01
2.062459e-01
1.940281e-01
1.820559e-01
1.706109e-01
1.592531e-01
1.468024e-01
1.377968e-01
1.342957e-01
1.411825e-01
1.531007e-01
1.660222e-01
1.794844e-01
1.930831e-01
2.070168e-01
2.211000e-01
1.333292e-01
1.365803e-01
1.473698e-01
1.569721e-01
1.690103e-01
1.824425e-01
1.964450e-01
2.109073e-01
2.256979e-01
2.406428e-01
1.401407e-01
1.507923e-01
1.616605e-01
1.728211e-01
1.856307e-01
1.996332e-01
2.143316e-01
2.294398e-01
2.450068e-01
2.615405e-01
2.793043e-01
1.347471e-01
1.449934e-01
1.546517e-01
1.657935e-01
1.772247e-01
1.890984e-01
2.027965e-01
2.175460e-01
2.327842e-01
2.484003e-01
2.642996e-01
2.805857e-01
2.952250e-01
1.354777e-01
1.471360e-01
1.573589e-01
1.697092e-01
1.819278e-01
1.936499e-01
2.056121e-01
2.205526e-01
2.359166e-01
2.516100e-01
2.675826e-01
2.835468e-01
2.999462e-01
3.131141e-01
1.302312e-01
1.371607e-01
1.481866e-01
1.607696e-01
1.706013e-01
1.864148e-01
1.992553e-01
2.110144e-01
2.214222e-01
2.394635e-01
2.544223e-01
2.707365e-01
2.869100e-01
3.023639e-01
3.215629e-01
3.310281e-01
2.821374e-01
2.671701e-01
2.531043e-01
2.397279e-01
2.267581e-01
2.140562e-01
2.015634e-01
1.893464e-01
1.772527e-01
1.650174e-01
1.536334e-01
1.403485e-01
4.990242e-01
4.996604e-01
4.967156e-01
4.984339e-01
4.995711e-01
4.930891e-01
4.959745e-01
4.980989e-01
4.994910e-01
4.837006e-01
4.883731e-01
4.922544e-01
4.954108e-01
4.978310e-01
4.994199e-01
4.654969e-01
4.759513e-01
4.822711e-01
4.872474e-01
4.914223e-01
4.948761e-01
4.975602e-01
4.993414e-01
4.691260e-01
4.752485e-01
4.809697e-01
4.860845e-01
4.905332e-01
4.942750e-01
4.972246e-01
4.992297e-01
4.538342e-01
4.604109e-01
4.668974e-01
4.733811e-01
4.793645e-01
4.847504e-01
4.894822e-01
4.934988e-01
4.967121e-01
4.990008e-01
4.995797e-01
4.402830e-01
4.492856e-01
4.570682e-01
4.643814e-01
4.712304e-01
4.775093e-01
4.831676e-01
4.881544e-01
4.923897e-01
4.957323e-01
4.979590e-01
4.994301e-01
4.144580e-01
4.262708e-01
4.366474e-01
4.457077e-01
4.539839e-01
4.616877e-01
4.688220e-01
4.753540e-01
4.812495e-01
4.864623e-01
4.909249e-01
4.945528e-01
4.973704e-01
4.992830e-01
3.814269e-01
3.983578e-01
4.117058e-01
4.230959e-01
4.330848e-01
4.422488e-01
3.056259e-01
2.894012e-01
2.746917e-01
2.611787e-01
2.480317e-01
2.350371e-01
2.221542e-01
2.093874e-01
1.967110e-01
1.840966e-01
1.716055e-01
1.588826e-01
1.462707e-01
4.507885e-01
4.587329e-01
4.660805e-01
4.728172e-01
4.789118e-01
4.843586e-01
4.891662e-01
4.933178e-01
4.967975e-01
4.991091e-01
1.364383e-01
1.500824e-01
1.646678e-01
1.807056e-01
1.978659e-01
2.161369e-01
2.352050e-01
2.548446e-01
2.747762e-01
2.947518e-01
3.146959e-01
3.345549e-01
3.541425e-01
3.736321e-01
3.921558e-01
4.092992e-01
4.249213e-01
4.398072e-01
4.548004e-01
4.648178e-01
4.741071e-01
4.841459e-01
4.911209e-01
4.963623e-01
3.659526e-01
3.844506e-01
3.969750e-01
4.091249e-01
4.194489e-01
4.292761e-01
4.386017e-01
4.473182e-01
4.554062e-01
4.629194e-01
4.698061e-01
4.760146e-01
4.817114e-01
4.869687e-01
4.915562e-01
4.964096e-01
4.986048e-01
1.372747e-01
1.516833e-01
1.670555e-01
1.838037e-01
2.016357e-01
2.204936e-01
2.400774e-01
2.601671e-01
2.805261e-01
3.009619e-01
3.213157e-01
3.414098e-01
3.610728e-01
3.800574e-01
3.980232e-01
4.148093e-01
4.303812e-01
4.447983e-01
4.574878e-01
4.684846e-01
4.782000e-01
4.866200e-01
4.932157e-01
4.979271e-01
1.381218e-01
1.533112e-01
1.694613e-01
1.869367e-01
2.054709e-01
2.249629e-01
2.451118e-01
2.656965e-01
2.864875e-01
3.072741e-01
3.278506e-01
3.480076e-01
3.675274e-01
3.861830e-01
4.037810e-01
4.201948e-01
4.353257e-01
4.490370e-01
4.612123e-01
4.719136e-01
4.811351e-01
4.887864e-01
4.946777e-01
4.985667e-01
1.389927e-01
1.549642e-01
1.719339e-01
1.902044e-01
2.094955e-01
2.296573e-01
2.503825e-01
2.714424e-01
2.926016e-01
3.293403e-01
3.116266e-01
2.957751e-01
2.827715e-01
2.698141e-01
2.567547e-01
2.436418e-01
2.305303e-01
2.174418e-01
2.043547e-01
1.913428e-01
1.782159e-01
1.650455e-01
1.510266e-01
1.411645e-01
3.136349e-01
3.343219e-01
3.544433e-01
3.737819e-01
3.921410e-01
4.093639e-01
4.253285e-01
4.399276e-01
4.530762e-01
4.647387e-01
4.748977e-01
4.834974e-01
4.904543e-01
4.956407e-01
4.988863e-01
1.397878e-01
1.566751e-01
1.745977e-01
1.937600e-01
2.138541e-01
2.346876e-01
2.559558e-01
2.774294e-01
2.988744e-01
3.200684e-01
3.407952e-01
3.608319e-01
3.799595e-01
3.979900e-01
4.147881e-01
4.302506e-01
4.442954e-01
4.568709e-01
4.679487e-01
4.774887e-01
4.854372e-01
4.917354e-01
4.963087e-01
4.990789e-01
1.407331e-01
1.587160e-01
1.777152e-01
1.978217e-01
2.187140e-01
2.401689e-01
2.618985e-01
2.836883e-01
3.053236e-01
3.266153e-01
3.473500e-01
3.672729e-01
3.861491e-01
4.037891e-01
4.200969e-01
4.350004e-01
4.484523e-01
4.604171e-01
4.708684e-01
4.797578e-01
4.870606e-01
4.927582e-01
4.968150e-01
4.992175e-01
1.421577e-01
1.614040e-01
1.815824e-01
2.026161e-01
2.242344e-01
2.462226e-01
2.682600e-01
2.902032e-01
3.119214e-01
3.333327e-01
3.540926e-01
3.738642e-01
3.924472e-01
4.096024e-01
4.253227e-01
4.395759e-01
4.524222e-01
4.637661e-01
4.735593e-01
4.817609e-01
4.884464e-01
4.936260e-01
4.972478e-01
4.993381e-01
1.441372e-01
1.651078e-01
1.865488e-01
2.082404e-01
2.305948e-01
2.530668e-01
2.750105e-01
2.967192e-01
3.185535e-01
3.404502e-01
3.611547e-01
3.806572e-01
3.990246e-01
4.155316e-01
4.304187e-01
4.438369e-01
4.563312e-01
4.670599e-01
4.760603e-01
4.834635e-01
4.896382e-01
4.944420e-01
3.527733e-01
3.348844e-01
3.146029e-01
3.041325e-01
2.918819e-01
2.789996e-01
2.658272e-01
2.525208e-01
2.391627e-01
2.257846e-01
2.123736e-01
1.989459e-01
1.855061e-01
1.722400e-01
1.605329e-01
1.476805e-01
4.976921e-01
4.994676e-01
1.485147e-01
1.718211e-01
1.918894e-01
2.145899e-01
2.383467e-01
2.614184e-01
2.817994e-01
3.004351e-01
3.261930e-01
3.484944e-01
3.684939e-01
3.873735e-01
4.067354e-01
4.220431e-01
4.343580e-01
4.475199e-01
4.609112e-01
4.707401e-01
4.778602e-01
4.847404e-01
4.906417e-01
4.954111e-01
4.983054e-01
4.995662e-01
4.995261e-01
4.992829e-01
4.979160e-01
4.995546e-01
4.987455e-01
4.971116e-01
4.950065e-01
4.992811e-01
4.978943e-01
4.960290e-01
4.935649e-01
4.907058e-01
4.987007e-01
4.970075e-01
4.947209e-01
4.919002e-01
4.885915e-01
4.849144e-01
4.993417e-01
4.974561e-01
4.958111e-01
4.932585e-01
4.900520e-01
4.863115e-01
4.821278e-01
4.775483e-01
4.687024e-01
4.990988e-01
4.971688e-01
4.945671e-01
4.916577e-01
4.880754e-01
4.838977e-01
4.792259e-01
4.741537e-01
4.586659e-01
4.995346e-01
4.986055e-01
4.965220e-01
4.935943e-01
4.900745e-01
4.860385e-01
4.814049e-01
4.762297e-01
4.706214e-01
4.647195e-01
4.474860e-01
4.992814e-01
4.978017e-01
4.956089e-01
4.924646e-01
4.885512e-01
4.840157e-01
4.788975e-01
4.732055e-01
4.670086e-01
4.604721e-01
4.538626e-01
4.987973e-01
4.970589e-01
4.945339e-01
4.911723e-01
4.869588e-01
4.820118e-01
4.764206e-01
4.702223e-01
4.634482e-01
4.561572e-01
4.486854e-01
4.414908e-01
4.344782e-01
4.189410e-01
4.994589e-01
4.978111e-01
4.961459e-01
4.934337e-01
4.898003e-01
4.852967e-01
4.799917e-01
4.739796e-01
4.673151e-01
4.600224e-01
4.521251e-01
4.434246e-01
4.350844e-01
4.277027e-01
3.597781e-01
3.749153e-01
4.992790e-01
4.977921e-01
4.953740e-01
4.923741e-01
4.884556e-01
4.836302e-01
4.779663e-01
4.715582e-01
4.644842e-01
4.567368e-01
4.483384e-01
4.394417e-01
4.273822e-01
4.200003e-01
4.137293e-01
3.974822e-01
1.238000e-01
1.238000e-01
1.238000e-01
1.238000e-01
1.238000e-01
1.238000e-01
1.238000e-01
1.238000e-01
1.238000e-01
1.238000e-01
1.238000e-01
1.238000e-01
1.238000e-01
1.238000e-01
1.238000e-01
1.238000e-01
1.238000e-01
1.238000e-01
1.238000e-01
1.238000e-01
1.238000e-01
1.238000e-01
1.238000e-01
1.238000e-01
1.238000e-01
1.238000e-01
1.238000e-01
1.238000e-01
1.238000e-01
1.238000e-01
1.238000e-01
1.238000e-01
1.238000e-01
1.238000e-01
1.238000e-01
1.238000e-01
1.238000e-01
1.238000e-01
1.238000e-01
1.238000e-01
1.238000e-01
1.238000e-01
1.238000e-01
1.238000e-01
1.238000e-01
1.238000e-01
1.238000e-01
1.238000e-01
1.238000e-01
1.238000e-01
1.238000e-01
1.238000e-01
1.238000e-01
1.238000e-01
1.238000e-01
1.238000e-01
1.238000e-01
1.238000e-01
1.238000e-01
1.238000e-01
1.238000e-01
1.238000e-01
1.238000e-01
1.238000e-01
1.238000e-01
1.238000e-01
1.238000e-01
1.238000e-01
1.238000e-01
1.238000e-01
1.238000e-01
1.238000e-01
1.238000e-01
1.238000e-01
1.238000e-01
1.238000e-01
1.238000e-01
1.238000e-01
1.238000e-01
1.238000e-01
1.238000e-01
1.238000e-01
1.238000e-01
1.238000e-01
1.238000e-01
1.238000e-01
1.238000e-01
1.238000e-01
1.238000e-01
1.238000e-01
1.238000e-01
1.238000e-01
1.238000e-01
1.238000e-01
1.238000e-01
1.238000e-01
1.238000e-01
1.238000e-01
1.238000e-01
1.238000e-01
1.238000e-01
1.238000e-01
1.238000e-01
1.238000e-01
1.238000e-01
1.238000e-01
1.238000e-01
1.238000e-01
1.238000e-01
1.238000e-01
1.238000e-01
1.238000e-01
1.238000e-01
1.238000e-01
1.238000e-01
1.238000e-01
1.238000e-01
1.238000e-01
1.238000e-01
1.238000e-01
1.238000e-01
1.238000e-01
1.238000e-01
1.238000e-01
1.238000e-01
1.238000e-01
1.238000e-01
1.238000e-01
1.238000e-01
1.238000e-01
1.238000e-01
1.238000e-01
1.238000e-01
1.238000e-01
1.238000e-01
1.238000e-01
1.238000e-01
1.238000e-01
1.238000e-01
1.238000e-01
1.238000e-01
1.238000e-01
1.238000e-01
1.238000e-01
1.238000e-01
1.238000e-01
1.238000e-01
1.238000e-01
1.238000e-01
1.238000e-01
1.238000e-01
1.238000e-01
1.238000e-01
1.238000e-01
1.238000e-01
1.238000e-01
1.238000e-01
1.238000e-01
1.238000e-01
1.238000e-01
1.238000e-01
1.238000e-01
1.238000e-01
1.238000e-01
1.238000e-01
1.238000e-01
1.238000e-01
1.238000e-01
1.238000e-01
1.238000e-01
1.238000e-01
1.238000e-01
1.238000e-01
1.238000e-01
1.238000e-01
1.238000e-01
1.238000e-01
1.238000e-01
1.238000e-01
1.238000e-01
1.238000e-01
1.238000e-01
1.238000e-01
1.238000e-01
1.238000e-01
1.238000e-01
1.238000e-01
1.238000e-01
1.238000e-01
1.238000e-01
1.238000e-01
1.238000e-01
1.238000e-01
1.238000e-01
1.238000e-01
1.238000e-01
1.238000e-01
1.238000e-01
1.238000e-01
1.238000e-01
1.238000e-01
1.238000e-01
1.238000e-01
1.238000e-01
1.238000e-01
1.238000e-01
1.238000e-01
1.238000e-01
1.238000e-01
1.238000e-01
1.238000e-01
1.238000e-01
1.238000e-01
1.238000e-01
1.238000e-01
1.238000e-01
1.238000e-01
1.238000e-01
1.238000e-01
1.238000e-01
1.238000e-01
1.238000e-01
1.238000e-01
1.238000e-01
1.238000e-01
1.238000e-01
1.238000e-01
1.238000e-01
1.238000e-01
1.238000e-01
1.238000e-01
1.238000e-01
1.238000e-01
1.238000e-01
1.238000e-01
1.238000e-01
1.238000e-01
1.238000e-01
1.238000e-01
1.238000e-01
1.238000e-01
1.238000e-01
1.238000e-01
1.238000e-01
1.238000e-01
1.238000e-01
1.238000e-01
1.238000e-01
1.238000e-01
1.238000e-01
1.238000e-01
1.238000e-01
1.238000e-01
1.238000e-01
1.238000e-01
1.238000e-01
1.238000e-01
1.238000e-01
1.238000e-01
1.238000e-01
1.238000e-01
1.238000e-01
1.238000e-01
1.238000e-01
1.238000e-01
1.238000e-01
1.238000e-01
1.238000e-01
1.238000e-01
1.238000e-01
1.238000e-01
1.238000e-01
1.238000e-01
1.238000e-01
1.238000e-01
1.238000e-01
1.238000e-01
1.238000e-01
1.238000e-01
1.238000e-01
1.238000e-01
1.238000e-01
1.238000e-01
1.238000e-01
1.238000e-01
1.238000e-01
1.238000e-01
1.238000e-01
1.238000e-01
1.238000e-01
1.238000e-01
1.238000e-01
1.238000e-01
1.238000e-01
1.238000e-01
1.238000e-01
1.238000e-01
1.238000e-01
1.238000e-01
1.238000e-01
1.238000e-01
1.238000e-01
1.238000e-01
1.238000e-01
1.238000e-01
1.238000e-01
1.238000e-01
1.238000e-01
1.238000e-01
1.238000e-01
1.238000e-01
1.238000e-01
1.238000e-01
1.238000e-01
1.238000e-01
1.238000e-01
1.238000e-01
1.238000e-01
1.238000e-01
1.238000e-01
1.238000e-01
1.238000e-01
1.238000e-01
1.238000e-01
1.238000e-01
1.238000e-01
1.238000e-01
1.238000e-01
1.238000e-01
1.238000e-01
1.238000e-01
1.238000e-01
1.238000e-01
1.238000e-01
1.238000e-01
1.238000e-01
1.238000e-01
1.238000e-01
1.238000e-01
1.238000e-01
1.238000e-01
1.238000e-01
1.238000e-01
1.238000e-01
1.238000e-01
1.238000e-01
1.238000e-01
1.238000e-01
1.238000e-01
1.238000e-01
1.238000e-01
1.238000e-01
1.238000e-01
1.238000e-01
1.238000e-01
1.238000e-01
1.238000e-01
1.238000e-01
1.238000e-01
1.238000e-01
1.238000e-01
1.238000e-01
1.238000e-01
1.238000e-01
1.238000e-01
1.238000e-01
1.238000e-01
1.238000e-01
1.238000e-01
1.238000e-01
2.738000e-01
2.738000e-01
2.738000e-01
2.738000e-01
2.738000e-01
2.738000e-01
2.738000e-01
2.738000e-01
2.738000e-01
2.738000e-01
2.738000e-01
2.738000e-01
2.738000e-01
2.738000e-01
2.738000e-01
2.738000e-01
2.738000e-01
2.738000e-01
2.738000e-01
2.738000e-01
2.738000e-01
2.738000e-01
2.738000e-01
2.738000e-01
2.738000e-01
2.738000e-01
2.738000e-01
2.738000e-01
2.738000e-01
2.738000e-01
2.738000e-01
2.738000e-01
2.738000e-01
2.252154e-01
2.180005e-01
2.363969e-01
2.222882e-01
2.280865e-01
2.141182e-01
2.135963e-01
2.075956e-01
2.032616e-01
2.255511e-01
2.190464e-01
2.131348e-01
2.241783e-01
2.118448e-01
2.213018e-01
1.413839e-01
2.719375e-01
2.689693e-01
2.622942e-01
2.653787e-01
2.631416e-01
2.571504e-01
2.635228e-01
2.596448e-01
2.556438e-01
2.563646e-01
2.515572e-01
2.465468e-01
2.520553e-01
2.469508e-01
2.419338e-01
2.362002e-01
2.699902e-01
2.470932e-01
2.415560e-01
2.358939e-01
2.323665e-01
2.249067e-01
2.224875e-01
2.274201e-01
2.151728e-01
2.425343e-01
2.322257e-01
2.727158e-01
2.202597e-01
2.059986e-01
2.124709e-01
2.066394e-01
2.005424e-01
1.956948e-01
1.933895e-01
1.978319e-01
1.918667e-01
1.871526e-01
1.835935e-01
1.885123e-01
1.812714e-01
1.777590e-01
1.740480e-01
1.705254e-01
1.677781e-01
1.645713e-01
1.575403e-01
1.550727e-01
1.447704e-01
1.813999e-01
1.662704e-01
1.542744e-01
1.446053e-01
1.340722e-01
2.621516e-01
2.570115e-01
2.730407e-01
2.703664e-01
2.718972e-01
2.661688e-01
2.682592e-01
2.633679e-01
2.575941e-01
2.660913e-01
2.695216e-01
2.723961e-01
1.596708e-01
1.481245e-01
1.351278e-01
1.591091e-01
1.452088e-01
1.320573e-01
2.618354e-01
2.566925e-01
2.729508e-01
2.701698e-01
2.717490e-01
2.659313e-01
2.680149e-01
2.630302e-01
2.571820e-01
1.591311e-01
1.478755e-01
1.351323e-01
1.597055e-01
1.456204e-01
1.321968e-01
2.728830e-01
2.699750e-01
2.715079e-01
2.656389e-01
2.676000e-01
2.626535e-01
2.571433e-01
1.602766e-01
1.485194e-01
1.351502e-01
2.726483e-01
2.689243e-01
2.651191e-01
2.623088e-01
2.587830e-01
2.573069e-01
2.486533e-01
1.595304e-01
1.463973e-01
1.329447e-01
1.845531e-01
1.713448e-01
1.578737e-01
1.430761e-01
1.320091e-01
2.627852e-01
2.578812e-01
2.729961e-01
2.702972e-01
2.718244e-01
2.660885e-01
2.681968e-01
2.631555e-01
2.574206e-01
1.620451e-01
1.500364e-01
1.363566e-01
1.597608e-01
1.461285e-01
2.528806e-01
2.596016e-01
2.643673e-01
2.682570e-01
1.325569e-01
2.729506e-01
2.703343e-01
2.665538e-01
1.618204e-01
1.499966e-01
1.355335e-01
2.602974e-01
2.547579e-01
2.726827e-01
2.695939e-01
2.713524e-01
2.650677e-01
2.670310e-01
2.589906e-01
2.611494e-01
2.513961e-01
2.546097e-01
1.802840e-01
1.679319e-01
1.556006e-01
1.445074e-01
1.333063e-01
1.564019e-01
1.433750e-01
1.314211e-01
2.726719e-01
2.693405e-01
2.709131e-01
2.645222e-01
2.667133e-01
2.616434e-01
2.558783e-01
2.417603e-01
1.577278e-01
1.473027e-01
1.344157e-01
2.731757e-01
2.698429e-01
2.651299e-01
2.617487e-01
2.581486e-01
2.565022e-01
2.473779e-01
1.590596e-01
1.454526e-01
1.325002e-01
1.830903e-01
1.701800e-01
1.570857e-01
1.426039e-01
1.317662e-01
2.614502e-01
2.561998e-01
2.728146e-01
2.699010e-01
2.715955e-01
2.655778e-01
2.676317e-01
2.622023e-01
2.561421e-01
1.608573e-01
1.491493e-01
1.358873e-01
1.579669e-01
1.450015e-01
1.320609e-01
2.618688e-01
2.567281e-01
2.728419e-01
2.326698e-01
2.698752e-01
2.716203e-01
2.654446e-01
2.677885e-01
2.627370e-01
2.568130e-01
1.592606e-01
1.476632e-01
1.346902e-01
1.570232e-01
1.443420e-01
1.317810e-01
2.728164e-01
2.697857e-01
2.713002e-01
2.654191e-01
2.669866e-01
2.611809e-01
2.551642e-01
1.579110e-01
1.472494e-01
1.343377e-01
2.726824e-01
2.703365e-01
2.671353e-01
2.606023e-01
2.611596e-01
2.552276e-01
2.507879e-01
1.579777e-01
1.446554e-01
1.320108e-01
1.870224e-01
1.740025e-01
1.577472e-01
1.451389e-01
1.340223e-01
2.727682e-01
2.694717e-01
2.705825e-01
2.503087e-01
2.570910e-01
2.624094e-01
2.664931e-01
2.691126e-01
2.721294e-01
2.646264e-01
2.662205e-01
2.606759e-01
2.547319e-01
1.578615e-01
1.468645e-01
1.347247e-01
2.728914e-01
2.687167e-01
2.616126e-01
2.561965e-01
2.491847e-01
1.585576e-01
1.452635e-01
1.321289e-01
1.350078e-01
2.667168e-01
2.641517e-01
2.595418e-01
2.591550e-01
2.515710e-01
2.501029e-01
2.525688e-01
2.436996e-01
2.340531e-01
2.380759e-01
2.426494e-01
2.453142e-01
2.251529e-01
2.309357e-01
2.359015e-01
2.350798e-01
2.073410e-01
1.965818e-01
1.882230e-01
1.798532e-01
1.707423e-01
1.603806e-01
1.503251e-01
1.437343e-01
1.350268e-01
1.493629e-01
1.543772e-01
1.634417e-01
1.642003e-01
1.789785e-01
1.757102e-01
1.730767e-01
1.894518e-01
1.856449e-01
1.825754e-01
1.913995e-01
2.031295e-01
1.984993e-01
1.945861e-01
2.157632e-01
2.114756e-01
2.065483e-01
2.028318e-01
2.000954e-01
2.285395e-01
2.091292e-01
2.180537e-01
2.224857e-01
2.710353e-01
1.341249e-01
2.724168e-01
2.721223e-01
2.705748e-01
2.682016e-01
2.731426e-01
2.626158e-01
2.598262e-01
2.564685e-01
2.334498e-01
2.399062e-01
2.477434e-01
2.547768e-01
2.605442e-01
2.650850e-01
2.686378e-01
2.716393e-01
2.731413e-01
2.716342e-01
2.690005e-01
2.652478e-01
2.436137e-01
2.728440e-01
2.707952e-01
2.678741e-01
2.636991e-01
2.588826e-01
2.542414e-01
2.495462e-01
2.733606e-01
2.722326e-01
2.692768e-01
2.670929e-01
2.616320e-01
2.563574e-01
2.515440e-01
2.476297e-01
2.397017e-01
2.330098e-01
1.395920e-01
1.320220e-01
1.613229e-01
1.533058e-01
1.429471e-01
1.347973e-01
1.644135e-01
1.514451e-01
1.975847e-01
1.911104e-01
1.811548e-01
1.681494e-01
1.573282e-01
1.479059e-01
1.391287e-01
1.325210e-01
1.821398e-01
1.717467e-01
2.598401e-01
2.521568e-01
2.438417e-01
2.335364e-01
2.217225e-01
2.086364e-01
1.950247e-01
2.729746e-01
2.709691e-01
2.665244e-01
2.597144e-01
2.511403e-01
2.403591e-01
2.291562e-01
2.171170e-01
2.048808e-01
1.943694e-01
1.824141e-01
1.722991e-01
1.609655e-01
1.476947e-01
1.365874e-01
2.108991e-01
2.026084e-01
1.927379e-01
1.814111e-01
1.707711e-01
1.610451e-01
1.519692e-01
1.437980e-01
1.353767e-01
1.321842e-01
2.463516e-01
2.378919e-01
2.268644e-01
2.139883e-01
1.518090e-01
1.462601e-01
1.358983e-01
1.980211e-01
1.844330e-01
1.709742e-01
1.571063e-01
1.443574e-01
1.341390e-01
2.595073e-01
2.517185e-01
2.430523e-01
2.321548e-01
2.202331e-01
2.076007e-01
1.945361e-01
1.810381e-01
1.690409e-01
1.562193e-01
2.727716e-01
2.707368e-01
2.663134e-01
2.601587e-01
2.511768e-01
2.383067e-01
2.264546e-01
2.139677e-01
2.013086e-01
1.896266e-01
2.727569e-01
2.695592e-01
2.650538e-01