VARIABLES = "X" "Y" "Z" "FREF"
ZONE T="instant 022"
Nodes=3151, Elements=6298
ZONETYPE=FETriangle
DATAPACKING=BLOCK
VARLOCATION = ([1-3]=NODAL, [4]=CELLCENTERED)
5.000000e-01
9.813191e-02
1.178458e-01
1.370762e-01
1.558254e-01
1.777815e-01
2.016417e-01
2.270027e-01
2.536933e-01
2.811392e-01
3.086273e-01
3.349725e-01
3.597953e-01
3.835374e-01
4.051178e-01
4.236108e-01
4.387974e-01
4.503048e-01
4.606070e-01
4.709236e-01
4.798235e-01
4.869346e-01
4.922417e-01
4.960864e-01
4.985043e-01
4.997150e-01
8.220000e-02
8.220000e-02
8.220000e-02
8.220000e-02
8.220000e-02
8.220000e-02
8.220000e-02
8.220000e-02
8.220000e-02
8.220000e-02
8.220000e-02
8.220000e-02
2.316566e-01
2.302619e-01
2.273773e-01
2.230034e-01
2.178347e-01
2.132496e-01
2.074264e-01
2.000074e-01
1.920645e-01
1.841979e-01
1.757274e-01
1.659283e-01
1.572681e-01
1.486909e-01
1.401247e-01
1.294661e-01
1.191905e-01
1.111910e-01
1.020221e-01
9.218884e-02
2.322000e-01
4.775989e-01
4.479607e-01
4.230537e-01
3.977044e-01
3.663322e-01
3.361290e-01
3.110481e-01
2.879036e-01
2.654170e-01
2.467553e-01
2.978295e-01
1.258689e-01
1.141402e-01
3.107530e-01
2.895966e-01
1.289576e-01
1.405149e-01
1.206969e-01
1.448631e-01
1.021291e-01
1.474032e-01
1.321314e-01
1.522708e-01
1.666825e-01
4.797718e-01
1.832452e-01
2.042294e-01
1.747317e-01
1.888028e-01
2.310134e-01
2.501035e-01
2.861943e-01
2.656375e-01
2.729197e-01
2.998497e-01
3.250602e-01
3.002316e-01
4.705616e-01
4.554088e-01
3.149995e-01
3.419551e-01
3.357402e-01
3.607714e-01
3.608328e-01
3.728275e-01
2.465399e-01
2.798786e-01
2.633330e-01
2.420020e-01
1.216698e-01
1.062363e-01
9.850855e-02
1.000156e-01
9.998638e-02
1.176975e-01
1.359940e-01
1.006599e-01
1.186780e-01
1.374891e-01
1.572565e-01
9.232685e-02
1.044522e-01
1.204994e-01
1.390946e-01
4.755509e-01
1.584766e-01
1.796060e-01
1.802647e-01
2.029579e-01
1.829300e-01
2.021527e-01
2.267946e-01
1.005666e-01
1.197387e-01
1.396719e-01
1.608813e-01
1.512831e-01
1.496563e-01
1.613277e-01
1.734477e-01
1.995146e-01
2.189264e-01
2.321052e-01
2.508209e-01
9.826213e-02
1.163873e-01
1.366548e-01
1.597594e-01
1.799668e-01
1.981583e-01
2.202980e-01
1.994487e-01
2.159101e-01
2.224933e-01
2.398458e-01
2.584638e-01
2.813768e-01
1.687820e-01
1.852136e-01
2.032382e-01
2.412496e-01
4.677479e-01
4.522420e-01
4.387916e-01
4.228842e-01
2.620949e-01
2.836386e-01
3.080604e-01
1.749759e-01
2.216875e-01
2.417756e-01
2.644243e-01
2.849281e-01
3.074521e-01
3.326376e-01
1.914548e-01
2.100820e-01
2.318773e-01
2.439752e-01
2.655791e-01
2.913904e-01
4.595420e-01
4.413497e-01
4.249397e-01
4.085770e-01
3.896674e-01
3.066621e-01
3.292896e-01
3.553003e-01
2.608891e-01
2.868874e-01
3.215929e-01
3.484985e-01
3.760706e-01
1.948947e-01
2.126937e-01
2.330387e-01
2.566042e-01
3.134285e-01
3.407347e-01
3.678110e-01
3.953443e-01
2.825554e-01
3.086418e-01
3.341305e-01
3.605201e-01
3.864654e-01
4.130730e-01
3.912609e-01
4.112056e-01
2.127737e-01
2.319349e-01
2.537884e-01
2.786171e-01
3.058360e-01
3.320855e-01
3.537159e-01
3.809544e-01
4.041237e-01
4.300072e-01
3.224967e-01
3.359699e-01
4.505078e-01
4.313306e-01
4.137082e-01
3.968709e-01
3.797263e-01
3.623016e-01
3.447986e-01
3.521288e-01
3.693299e-01
3.861515e-01
4.025571e-01
4.210947e-01
4.406043e-01
8.220000e-02
4.996052e-01
4.976329e-01
4.941546e-01
4.891236e-01
4.811932e-01
4.718082e-01
4.599862e-01
4.456071e-01
4.272064e-01
4.070806e-01
3.882416e-01
3.671981e-01
3.432647e-01
3.182814e-01
2.967675e-01
2.781344e-01
2.590603e-01
2.370682e-01
2.135696e-01
1.904972e-01
1.683576e-01
1.473484e-01
1.279708e-01
1.104286e-01
9.504019e-02
5.000000e-01
2.466485e-01
2.658382e-01
2.895051e-01
3.167270e-01
3.431725e-01
3.690641e-01
3.951560e-01
4.243444e-01
4.553024e-01
4.810736e-01
2.322000e-01
9.113161e-02
1.000807e-01
1.106778e-01
1.222503e-01
1.328671e-01
1.428956e-01
1.531491e-01
1.631730e-01
1.721818e-01
1.793156e-01
1.878873e-01
1.957291e-01
2.021171e-01
2.074698e-01
2.124752e-01
2.184945e-01
2.231578e-01
2.259166e-01
2.282788e-01
2.303688e-01
2.317657e-01
8.220000e-02
8.220000e-02
8.220000e-02
8.220000e-02
8.220000e-02
8.220000e-02
8.220000e-02
8.220000e-02
8.220000e-02
8.220000e-02
8.220000e-02
2.913311e-01
3.368594e-01
1.231814e-01
1.537456e-01
1.479810e-01
2.474547e-01
2.578807e-01
2.726813e-01
2.753946e-01
3.014872e-01
3.024756e-01
3.129751e-01
2.943932e-01
3.831896e-01
9.775663e-02
3.559676e-01
3.294878e-01
3.653248e-01
3.095900e-01
3.516139e-01
3.331053e-01
3.758294e-01
3.581560e-01
1.025647e-01
1.443463e-01
1.251932e-01
1.149991e-01
1.020680e-01
1.434132e-01
1.752678e-01
1.422185e-01
1.800766e-01
1.672361e-01
1.978197e-01
1.831898e-01
2.135753e-01
2.327413e-01
1.044417e-01
2.485456e-01
1.004755e-01
1.094449e-01
1.238916e-01
2.386265e-01
2.567552e-01
2.743778e-01
4.719495e-01
4.423094e-01
4.584995e-01
4.710394e-01
4.011390e-01
4.148776e-01
4.285152e-01
4.427443e-01
1.330847e-01
1.195198e-01
1.005139e-01
4.602452e-01
3.991752e-01
4.124371e-01
4.270391e-01
4.516685e-01
3.814577e-01
3.872703e-01
4.260324e-01
4.397206e-01
2.411007e-01
2.526771e-01
2.677626e-01
3.656199e-01
3.864023e-01
4.180098e-01
3.288062e-01
3.587783e-01
3.695039e-01
3.827129e-01
3.942323e-01
4.021510e-01
4.091320e-01
2.242652e-01
2.854078e-01
3.105186e-01
3.419308e-01
3.592219e-01
3.817267e-01
4.056120e-01
2.303368e-01
2.417882e-01
2.566100e-01
3.304257e-01
3.513069e-01
1.528549e-01
1.388818e-01
3.708697e-01
3.901186e-01
2.086274e-01
2.753747e-01
2.975362e-01
3.255143e-01
3.401161e-01
3.566609e-01
3.727663e-01
2.160437e-01
2.275743e-01
2.422330e-01
3.101149e-01
3.261358e-01
3.401477e-01
3.539498e-01
2.588832e-01
1.731183e-01
1.561840e-01
1.377722e-01
1.193581e-01
1.012158e-01
2.754788e-01
2.999132e-01
3.098697e-01
3.217760e-01
3.334163e-01
1.889329e-01
1.979856e-01
2.110612e-01
2.253004e-01
2.803308e-01
2.912305e-01
3.023694e-01
3.117799e-01
2.380878e-01
2.495201e-01
2.609753e-01
2.732949e-01
2.830520e-01
2.896229e-01
1.025404e-01
1.234686e-01
1.504629e-01
1.730202e-01
1.954835e-01
2.180495e-01
2.400538e-01
1.667784e-01
1.759881e-01
1.977163e-01
2.052581e-01
2.163035e-01
2.298001e-01
2.439651e-01
2.585309e-01
2.616320e-01
2.656926e-01
1.946506e-01
1.764321e-01
1.585973e-01
1.410318e-01
1.227451e-01
1.024610e-01
2.013567e-01
2.192074e-01
2.397558e-01
1.648235e-01
1.806035e-01
1.977996e-01
2.170240e-01
5.000000e-01
5.000000e-01
5.000000e-01
5.000000e-01
5.000000e-01
5.000000e-01
5.000000e-01
5.000000e-01
5.000000e-01
5.000000e-01
5.000000e-01
5.000000e-01
5.000000e-01
5.000000e-01
5.000000e-01
5.000000e-01
5.000000e-01
5.000000e-01
5.000000e-01
5.000000e-01
5.000000e-01
5.000000e-01
5.000000e-01
5.000000e-01
5.000000e-01
5.000000e-01
5.000000e-01
5.000000e-01
5.000000e-01
5.000000e-01
5.000000e-01
5.000000e-01
5.000000e-01
8.220000e-02
8.220000e-02
8.220000e-02
8.220000e-02
8.220000e-02
8.220000e-02
8.220000e-02
8.220000e-02
8.220000e-02
8.220000e-02
8.220000e-02
8.220000e-02
8.220000e-02
8.220000e-02
8.220000e-02
8.220000e-02
8.220000e-02
8.220000e-02
8.220000e-02
8.220000e-02
8.220000e-02
8.220000e-02
8.220000e-02
8.220000e-02
8.220000e-02
8.220000e-02
8.220000e-02
8.220000e-02
8.220000e-02
8.220000e-02
8.220000e-02
8.220000e-02
8.220000e-02
3.348961e-01
3.498120e-01
3.431916e-01
3.574012e-01
3.719410e-01
3.864986e-01
3.608775e-01
3.719499e-01
2.843549e-01
2.980362e-01
3.093250e-01
3.106322e-01
3.212108e-01
3.292240e-01
3.374677e-01
3.699494e-01
3.474459e-01
3.350183e-01
3.571359e-01
3.786362e-01
3.235920e-01
3.238733e-01
1.047098e-01
9.557923e-02
3.432404e-01
3.650813e-01
3.864370e-01
3.635921e-01
3.778565e-01
3.919749e-01
3.834554e-01
3.963488e-01
4.013411e-01
4.255478e-01
3.695564e-01
3.853136e-01
3.610033e-01
3.931219e-01
3.721350e-01
3.503739e-01
4.002547e-01
3.798374e-01
3.612258e-01
3.418804e-01
3.981059e-01
4.133887e-01
4.094683e-01
3.937401e-01
3.812339e-01
1.242099e-01
1.120906e-01
9.882659e-02
3.335098e-01
3.479177e-01
3.601175e-01
3.227831e-01
3.365244e-01
3.117413e-01
9.736688e-02
1.091794e-01
1.124951e-01
1.252984e-01
1.296104e-01
1.402191e-01
1.440864e-01
1.486941e-01
1.494005e-01
1.583163e-01
1.641943e-01
1.694735e-01
1.705437e-01
1.790092e-01
1.856598e-01
1.914781e-01
1.841245e-01
1.932695e-01
2.013200e-01
2.082121e-01
2.143292e-01
1.993290e-01
2.081162e-01
2.167538e-01
2.245481e-01
2.314149e-01
2.375975e-01
2.135981e-01
1.441439e-01
1.311521e-01
1.179274e-01
1.049104e-01
9.675435e-02
2.230987e-01
2.321910e-01
2.406278e-01
2.481799e-01
2.547918e-01
2.608107e-01
2.369693e-01
2.472140e-01
2.563931e-01
2.646030e-01
2.718598e-01
2.778310e-01
2.834537e-01
2.503975e-01
2.614238e-01
2.717146e-01
2.805191e-01
2.883945e-01
2.955515e-01
2.997220e-01
3.049959e-01
2.629032e-01
2.745728e-01
2.859760e-01
2.965852e-01
3.038393e-01
3.117605e-01
3.209715e-01
3.181802e-01
3.260765e-01
3.421586e-01
3.970252e-01
3.148082e-01
3.347134e-01
3.572735e-01
1.653161e-01
1.519276e-01
1.383576e-01
1.253007e-01
1.140678e-01
1.032446e-01
3.800366e-01
3.012610e-01
3.232883e-01
3.468029e-01
3.701916e-01
3.897125e-01
4.066382e-01
3.468232e-01
3.604972e-01
3.669502e-01
3.753601e-01
3.823624e-01
3.907051e-01
3.992230e-01
4.078365e-01
4.087971e-01
4.128200e-01
4.172033e-01
4.202999e-01
4.236819e-01
4.275469e-01
3.900401e-01
4.011399e-01
4.099512e-01
4.184674e-01
4.267531e-01
4.331249e-01
4.371636e-01
4.059256e-01
4.109619e-01
4.188880e-01
4.282394e-01
4.357669e-01
4.413079e-01
4.458515e-01
4.224160e-01
4.375934e-01
4.357022e-01
4.466929e-01
4.497148e-01
4.538502e-01
4.579610e-01
4.613956e-01
4.358064e-01
4.524273e-01
4.620060e-01
4.679413e-01
4.486003e-01
4.625268e-01
4.686120e-01
4.736252e-01
4.695539e-01
4.794957e-01
1.881748e-01
1.742134e-01
1.601256e-01
1.463979e-01
1.335229e-01
1.210502e-01
1.071935e-01
9.780997e-02
4.763694e-01
4.849451e-01
4.789621e-01
4.860014e-01
4.932378e-01
4.977621e-01
4.948845e-01
4.910678e-01
4.906426e-01
4.864514e-01
4.848101e-01
4.855076e-01
4.775916e-01
4.783920e-01
4.794874e-01
4.808888e-01
4.691211e-01
4.697388e-01
4.709311e-01
4.725237e-01
4.744101e-01
4.594568e-01
4.607251e-01
4.625244e-01
4.647057e-01
4.671271e-01
4.562012e-01
4.591784e-01
4.472006e-01
4.487741e-01
4.508076e-01
4.533401e-01
4.333292e-01
4.350454e-01
4.372572e-01
4.401723e-01
4.436413e-01
4.472358e-01
4.506426e-01
4.185142e-01
4.197097e-01
4.217677e-01
4.249545e-01
4.291693e-01
4.339287e-01
4.379595e-01
4.412869e-01
3.853176e-01
3.858550e-01
4.030538e-01
4.043337e-01
4.072469e-01
4.124011e-01
4.183900e-01
4.254024e-01
4.267255e-01
4.312837e-01
3.825722e-01
3.984357e-01
3.705657e-01
1.381910e-01
1.682619e-01
1.502268e-01
1.736228e-01
1.639261e-01
1.979112e-01
1.897497e-01
1.794607e-01
2.300766e-01
2.165957e-01
2.124610e-01
1.977638e-01
1.831297e-01
1.687754e-01
1.548566e-01
1.413478e-01
1.279455e-01
1.158813e-01
1.042998e-01
2.057258e-01
1.951294e-01
2.581629e-01
2.451200e-01
2.327585e-01
2.214566e-01
2.107250e-01
2.733042e-01
2.602543e-01
2.482182e-01
2.369541e-01
2.262154e-01
3.008924e-01
2.873660e-01
2.749293e-01
2.633175e-01
2.522738e-01
2.415995e-01
3.268954e-01
3.135534e-01
3.010068e-01
2.893229e-01
2.782414e-01
2.674761e-01
2.568591e-01
3.502560e-01
3.386012e-01
3.260006e-01
3.144619e-01
3.036446e-01
2.931412e-01
2.825740e-01
2.719105e-01
3.690567e-01
3.643609e-01
3.494889e-01
3.383202e-01
3.279181e-01
3.181895e-01
3.081104e-01
2.974296e-01
2.865690e-01
4.226838e-01
4.090159e-01
3.919333e-01
3.723362e-01
3.496853e-01
3.252875e-01
3.005537e-01
4.042798e-01
3.860049e-01
3.646157e-01
3.380478e-01
3.134000e-01
9.786854e-02
9.634570e-02
9.943415e-02
1.151143e-01
1.102148e-01
1.202627e-01
1.340823e-01
9.789760e-02
1.124103e-01
1.265772e-01
1.398812e-01
1.543374e-01
9.951311e-02
1.151167e-01
1.303912e-01
1.454191e-01
1.605403e-01
1.758989e-01
2.378339e-01
2.223014e-01
2.071112e-01
1.922521e-01
1.777048e-01
1.634343e-01
1.494158e-01
1.359550e-01
1.227710e-01
1.085034e-01
9.793708e-02
9.512609e-02
1.041102e-01
1.185622e-01
1.341811e-01
1.500661e-01
1.661606e-01
1.824140e-01
1.985890e-01
9.380527e-02
9.796602e-02
1.111460e-01
1.236374e-01
1.384763e-01
1.545336e-01
1.712000e-01
1.881360e-01
2.052937e-01
2.223988e-01
1.023028e-01
1.154742e-01
1.292709e-01
1.434377e-01
1.591135e-01
1.759076e-01
1.932538e-01
2.108793e-01
2.288391e-01
2.479362e-01
2.683693e-01
9.550897e-02
1.077928e-01
1.200646e-01
1.342397e-01
1.488231e-01
1.638539e-01
1.803264e-01
1.979079e-01
2.158097e-01
2.338506e-01
2.520481e-01
2.703995e-01
2.863196e-01
9.638052e-02
1.104400e-01
1.234181e-01
1.385533e-01
1.544203e-01
1.694692e-01
1.842881e-01
2.019013e-01
2.202991e-01
2.384518e-01
2.566685e-01
2.746080e-01
2.923637e-01
3.064833e-01
8.971170e-02
9.815816e-02
1.115236e-01
1.277791e-01
1.396235e-01
1.594341e-01
1.761541e-01
1.908181e-01
2.032468e-01
2.246656e-01
2.425844e-01
2.609561e-01
2.792319e-01
2.962208e-01
3.166545e-01
3.263112e-01
2.638589e-01
2.473895e-01
2.316992e-01
2.165165e-01
2.015986e-01
1.868428e-01
1.722503e-01
1.578789e-01
1.437222e-01
1.295786e-01
1.161524e-01
1.013610e-01
4.990286e-01
4.996633e-01
4.967447e-01
4.984465e-01
4.995764e-01
4.931800e-01
4.960380e-01
4.981357e-01
4.995035e-01
4.839031e-01
4.885702e-01
4.924232e-01
4.955302e-01
4.978982e-01
4.994411e-01
4.659478e-01
4.763073e-01
4.826531e-01
4.875850e-01
4.916899e-01
4.950622e-01
4.976618e-01
4.993720e-01
4.697579e-01
4.758668e-01
4.815382e-01
4.865719e-01
4.909150e-01
4.945371e-01
4.973663e-01
4.992719e-01
4.544269e-01
4.611931e-01
4.677601e-01
4.742279e-01
4.801368e-01
4.854049e-01
4.899911e-01
4.938482e-01
4.969041e-01
4.990561e-01
4.996013e-01
4.410953e-01
4.503054e-01
4.582008e-01
4.655419e-01
4.723389e-01
4.785028e-01
4.840021e-01
4.888012e-01
4.928372e-01
4.959899e-01
4.980589e-01
4.994559e-01
4.150413e-01
4.272016e-01
4.379016e-01
4.471283e-01
4.554754e-01
4.631627e-01
4.702009e-01
4.765749e-01
4.822671e-01
4.872464e-01
4.914633e-01
4.948585e-01
4.975055e-01
4.993185e-01
3.807791e-01
3.985695e-01
4.126951e-01
4.245110e-01
4.347475e-01
4.440527e-01
2.901158e-01
2.724732e-01
2.563215e-01
2.411399e-01
2.261601e-01
2.111890e-01
1.962365e-01
1.813478e-01
1.665418e-01
1.517947e-01
1.373314e-01
1.227793e-01
1.087969e-01
4.526287e-01
4.605135e-01
4.677210e-01
4.742569e-01
4.801049e-01
4.852733e-01
4.897974e-01
4.936952e-01
4.969653e-01
4.991607e-01
9.772509e-02
1.144190e-01
1.327868e-01
1.527603e-01
1.742439e-01
1.967770e-01
2.199733e-01
2.434178e-01
2.666971e-01
2.894687e-01
3.116437e-01
3.332602e-01
3.541976e-01
3.746797e-01
3.938253e-01
4.112413e-01
4.269461e-01
4.417670e-01
4.565104e-01
4.661677e-01
4.752679e-01
4.849736e-01
4.916088e-01
4.966271e-01
3.648353e-01
3.845464e-01
3.978454e-01
4.105582e-01
4.212465e-01
4.313169e-01
4.407611e-01
4.494774e-01
4.574614e-01
4.647929e-01
4.714440e-01
4.773696e-01
4.827549e-01
4.877214e-01
4.920456e-01
4.966051e-01
4.986842e-01
9.878238e-02
1.164488e-01
1.357314e-01
1.565382e-01
1.787127e-01
2.017889e-01
2.253833e-01
2.491068e-01
2.726154e-01
2.956671e-01
3.181221e-01
3.398561e-01
3.607490e-01
3.806048e-01
3.991131e-01
4.161827e-01
4.318480e-01
4.462070e-01
4.587186e-01
4.695260e-01
4.790361e-01
4.871978e-01
4.935618e-01
4.980661e-01
9.979404e-02
1.184098e-01
1.385676e-01
1.601912e-01
1.830641e-01
2.067059e-01
2.307319e-01
2.547765e-01
2.785343e-01
3.017748e-01
3.243176e-01
3.459988e-01
3.666536e-01
3.861076e-01
4.042216e-01
4.209307e-01
4.361892e-01
4.499047e-01
4.620057e-01
4.725942e-01
4.816704e-01
4.891554e-01
4.948870e-01
4.986374e-01
1.007966e-01
1.203402e-01
1.414054e-01
1.638831e-01
1.874818e-01
2.116995e-01
2.361527e-01
2.604968e-01
2.844475e-01
3.164490e-01
2.971346e-01
2.800269e-01
2.655890e-01
2.509936e-01
2.361174e-01
2.210587e-01
2.059111e-01
1.907387e-01
1.755666e-01
1.604305e-01
1.453828e-01
1.303554e-01
1.143359e-01
1.022641e-01
3.077801e-01
3.303070e-01
3.518546e-01
3.722584e-01
3.913789e-01
4.091186e-01
4.254104e-01
4.401942e-01
4.534258e-01
4.651027e-01
4.752308e-01
4.837668e-01
4.906417e-01
4.957437e-01
4.989182e-01
1.017286e-01
1.223243e-01
1.444252e-01
1.678279e-01
1.921673e-01
2.169376e-01
2.417700e-01
2.663466e-01
2.904103e-01
3.137608e-01
3.362197e-01
3.576062e-01
3.777532e-01
3.965331e-01
4.138690e-01
4.297055e-01
4.440021e-01
4.567416e-01
4.679204e-01
4.775139e-01
4.854813e-01
4.917761e-01
4.963342e-01
4.990871e-01
1.028205e-01
1.246800e-01
1.479372e-01
1.722938e-01
1.973350e-01
2.225891e-01
2.477036e-01
2.724029e-01
2.964874e-01
3.198173e-01
3.422025e-01
3.634189e-01
3.832874e-01
4.016823e-01
4.185622e-01
4.338925e-01
4.476644e-01
4.598726e-01
4.705069e-01
4.795286e-01
4.869254e-01
4.926881e-01
4.967865e-01
4.992109e-01
1.044915e-01
1.278347e-01
1.523127e-01
1.775339e-01
2.031823e-01
2.288344e-01
2.540511e-01
2.786747e-01
3.026926e-01
3.260769e-01
3.484273e-01
3.694469e-01
3.890092e-01
4.069393e-01
4.232707e-01
4.379971e-01
4.512281e-01
4.628902e-01
4.729385e-01
4.813370e-01
4.881787e-01
4.934793e-01
4.971853e-01
4.993231e-01
1.070353e-01
1.323501e-01
1.578920e-01
1.835989e-01
2.099341e-01
2.359736e-01
2.608178e-01
2.848530e-01
3.089867e-01
3.328515e-01
3.550794e-01
3.757782e-01
3.951298e-01
4.124583e-01
4.279731e-01
4.418888e-01
4.548338e-01
4.659566e-01
4.752599e-01
4.829004e-01
4.892803e-01
4.942510e-01
3.423874e-01
3.228958e-01
3.007311e-01
2.893600e-01
2.757830e-01
2.613101e-01
2.463799e-01
2.312008e-01
2.158896e-01
2.005058e-01
1.850753e-01
1.696181e-01
1.542157e-01
1.391473e-01
1.253572e-01
1.108733e-01
4.976153e-01
4.994498e-01
1.125513e-01
1.402782e-01
1.635921e-01
1.903234e-01
2.182282e-01
2.448232e-01
2.676450e-01
2.878714e-01
3.165265e-01
3.407341e-01
3.621476e-01
3.821203e-01
4.025273e-01
4.188081e-01
4.315903e-01
4.452787e-01
4.592264e-01
4.695590e-01
4.769284e-01
4.840759e-01
4.902241e-01
4.952096e-01
4.982367e-01
4.995482e-01
4.995008e-01
4.992351e-01
4.978061e-01
4.995251e-01
4.986527e-01
4.969370e-01
4.947381e-01
4.992240e-01
4.977565e-01
4.957769e-01
4.931921e-01
4.901951e-01
4.985729e-01
4.967884e-01
4.943794e-01
4.914096e-01
4.879395e-01
4.840776e-01
4.992901e-01
4.972522e-01
4.954958e-01
4.928036e-01
4.894298e-01
4.855011e-01
4.811116e-01
4.763031e-01
4.669671e-01
4.990243e-01
4.969483e-01
4.941835e-01
4.910920e-01
4.873110e-01
4.829171e-01
4.780129e-01
4.726891e-01
4.563736e-01
4.994974e-01
4.984846e-01
4.962502e-01
4.931303e-01
4.894004e-01
4.851290e-01
4.802458e-01
4.748081e-01
4.689233e-01
4.627285e-01
4.445587e-01
4.992265e-01
4.976375e-01
4.952740e-01
4.919138e-01
4.877562e-01
4.829553e-01
4.775523e-01
4.715645e-01
4.650622e-01
4.582057e-01
4.512628e-01
4.987026e-01
4.968441e-01
4.941378e-01
4.905363e-01
4.860452e-01
4.807960e-01
4.748849e-01
4.683534e-01
4.612368e-01
4.535983e-01
4.457492e-01
4.381673e-01
4.307859e-01
4.143447e-01
4.994257e-01
4.976648e-01
4.958794e-01
4.929769e-01
4.890875e-01
4.842757e-01
4.786297e-01
4.722568e-01
4.652201e-01
4.575443e-01
4.492443e-01
4.401445e-01
4.313184e-01
4.235303e-01
3.507057e-01
3.665686e-01
4.992389e-01
4.976628e-01
4.950882e-01
4.918780e-01
4.876830e-01
4.825218e-01
4.764789e-01
4.696659e-01
4.621743e-01
4.540075e-01
4.451728e-01
4.357715e-01
4.230538e-01
4.153029e-01
4.087481e-01
3.912942e-01
8.220000e-02
8.220000e-02
8.220000e-02
8.220000e-02
8.220000e-02
8.220000e-02
8.220000e-02
8.220000e-02
8.220000e-02
8.220000e-02
8.220000e-02
8.220000e-02
8.220000e-02
8.220000e-02
8.220000e-02
8.220000e-02
8.220000e-02
8.220000e-02
8.220000e-02
8.220000e-02
8.220000e-02
8.220000e-02
8.220000e-02
8.220000e-02
8.220000e-02
8.220000e-02
8.220000e-02
8.220000e-02
8.220000e-02
8.220000e-02
8.220000e-02
8.220000e-02
8.220000e-02
8.220000e-02
8.220000e-02
8.220000e-02
8.220000e-02
8.220000e-02
8.220000e-02
8.220000e-02
8.220000e-02
8.220000e-02
8.220000e-02
8.220000e-02
8.220000e-02
8.220000e-02
8.220000e-02
8.220000e-02
8.220000e-02
8.220000e-02
8.220000e-02
8.220000e-02
8.220000e-02
8.220000e-02
8.220000e-02
8.220000e-02
8.220000e-02
8.220000e-02
8.220000e-02
8.220000e-02
8.220000e-02
8.220000e-02
8.220000e-02
8.220000e-02
8.220000e-02
8.220000e-02
8.220000e-02
8.220000e-02
8.220000e-02
8.220000e-02
8.220000e-02
8.220000e-02
8.220000e-02
8.220000e-02
8.220000e-02
8.220000e-02
8.220000e-02
8.220000e-02
8.220000e-02
8.220000e-02
8.220000e-02
8.220000e-02
8.220000e-02
8.220000e-02
8.220000e-02
8.220000e-02
8.220000e-02
8.220000e-02
8.220000e-02
8.220000e-02
8.220000e-02
8.220000e-02
8.220000e-02
8.220000e-02
8.220000e-02
8.220000e-02
8.220000e-02
8.220000e-02
8.220000e-02
8.220000e-02
8.220000e-02
8.220000e-02
8.220000e-02
8.220000e-02
8.220000e-02
8.220000e-02
8.220000e-02
8.220000e-02
8.220000e-02
8.220000e-02
8.220000e-02
8.220000e-02
8.220000e-02
8.220000e-02
8.220000e-02
8.220000e-02
8.220000e-02
8.220000e-02
8.220000e-02
8.220000e-02
8.220000e-02
8.220000e-02
8.220000e-02
8.220000e-02
8.220000e-02
8.220000e-02
8.220000e-02
8.220000e-02
8.220000e-02
8.220000e-02
8.220000e-02
8.220000e-02
8.220000e-02
8.220000e-02
8.220000e-02
8.220000e-02
8.220000e-02
8.220000e-02
8.220000e-02
8.220000e-02
8.220000e-02
8.220000e-02
8.220000e-02
8.220000e-02
8.220000e-02
8.220000e-02
8.220000e-02
8.220000e-02
8.220000e-02
8.220000e-02
8.220000e-02
8.220000e-02
8.220000e-02
8.220000e-02
8.220000e-02
8.220000e-02
8.220000e-02
8.220000e-02
8.220000e-02
8.220000e-02
8.220000e-02
8.220000e-02
8.220000e-02
8.220000e-02
8.220000e-02
8.220000e-02
8.220000e-02
8.220000e-02
8.220000e-02
8.220000e-02
8.220000e-02
8.220000e-02
8.220000e-02
8.220000e-02
8.220000e-02
8.220000e-02
8.220000e-02
8.220000e-02
8.220000e-02
8.220000e-02
8.220000e-02
8.220000e-02
8.220000e-02
8.220000e-02
8.220000e-02
8.220000e-02
8.220000e-02
8.220000e-02
8.220000e-02
8.220000e-02
8.220000e-02
8.220000e-02
8.220000e-02
8.220000e-02
8.220000e-02
8.220000e-02
8.220000e-02
8.220000e-02
8.220000e-02
8.220000e-02
8.220000e-02
8.220000e-02
8.220000e-02
8.220000e-02
8.220000e-02
8.220000e-02
8.220000e-02
8.220000e-02
8.220000e-02
8.220000e-02
8.220000e-02
8.220000e-02
8.220000e-02
8.220000e-02
8.220000e-02
8.220000e-02
8.220000e-02
8.220000e-02
8.220000e-02
8.220000e-02
8.220000e-02
8.220000e-02
8.220000e-02
8.220000e-02
8.220000e-02
8.220000e-02
8.220000e-02
8.220000e-02
8.220000e-02
8.220000e-02
8.220000e-02
8.220000e-02
8.220000e-02
8.220000e-02
8.220000e-02
8.220000e-02
8.220000e-02
8.220000e-02
8.220000e-02
8.220000e-02
8.220000e-02
8.220000e-02
8.220000e-02
8.220000e-02
8.220000e-02
8.220000e-02
8.220000e-02
8.220000e-02
8.220000e-02
8.220000e-02
8.220000e-02
8.220000e-02
8.220000e-02
8.220000e-02
8.220000e-02
8.220000e-02
8.220000e-02
8.220000e-02
8.220000e-02
8.220000e-02
8.220000e-02
8.220000e-02
8.220000e-02
8.220000e-02
8.220000e-02
8.220000e-02
8.220000e-02
8.220000e-02
8.220000e-02
8.220000e-02
8.220000e-02
8.220000e-02
8.220000e-02
8.220000e-02
8.220000e-02
8.220000e-02
8.220000e-02
8.220000e-02
8.220000e-02
8.220000e-02
8.220000e-02
8.220000e-02
8.220000e-02
8.220000e-02
8.220000e-02
8.220000e-02
8.220000e-02
8.220000e-02
8.220000e-02
8.220000e-02
8.220000e-02
8.220000e-02
8.220000e-02
8.220000e-02
8.220000e-02
8.220000e-02
8.220000e-02
8.220000e-02
8.220000e-02
8.220000e-02
8.220000e-02
8.220000e-02
8.220000e-02
8.220000e-02
8.220000e-02
8.220000e-02
8.220000e-02
8.220000e-02
8.220000e-02
8.220000e-02
8.220000e-02
8.220000e-02
8.220000e-02
8.220000e-02
8.220000e-02
8.220000e-02
8.220000e-02
8.220000e-02
8.220000e-02
8.220000e-02
8.220000e-02
8.220000e-02
8.220000e-02
8.220000e-02
8.220000e-02
8.220000e-02
8.220000e-02
8.220000e-02
8.220000e-02
8.220000e-02
8.220000e-02
8.220000e-02
8.220000e-02
8.220000e-02
8.220000e-02
8.220000e-02
8.220000e-02
8.220000e-02
8.220000e-02
8.220000e-02
8.220000e-02
8.220000e-02
8.220000e-02
8.220000e-02
8.220000e-02
8.220000e-02
8.220000e-02
8.220000e-02
8.220000e-02
8.220000e-02
8.220000e-02
8.220000e-02
8.220000e-02
8.220000e-02
8.220000e-02
8.220000e-02
8.220000e-02
8.220000e-02
8.220000e-02
8.220000e-02
8.220000e-02
8.220000e-02
8.220000e-02
8.220000e-02
8.220000e-02
8.220000e-02
8.220000e-02
8.220000e-02
8.220000e-02
8.220000e-02
2.322000e-01
2.322000e-01
2.322000e-01
2.322000e-01
2.322000e-01
2.322000e-01
2.322000e-01
2.322000e-01
2.322000e-01
2.322000e-01
2.322000e-01
2.322000e-01
2.322000e-01
2.322000e-01
2.322000e-01
2.322000e-01
2.322000e-01
2.322000e-01
2.322000e-01
2.322000e-01
2.322000e-01
2.322000e-01
2.322000e-01
2.322000e-01
2.322000e-01
2.322000e-01
2.322000e-01
2.322000e-01
2.322000e-01
2.322000e-01
2.322000e-01
2.322000e-01
2.322000e-01
1.844700e-01
1.770950e-01
1.956288e-01
1.812292e-01
1.873086e-01
1.730654e-01
1.726048e-01
1.663054e-01
1.618648e-01
1.868794e-01
1.808590e-01
1.750850e-01
1.864021e-01
1.741655e-01
1.840601e-01
9.910827e-02
2.304078e-01
2.275693e-01
2.213517e-01
2.241664e-01
2.220318e-01
2.162151e-01
2.223278e-01
2.185279e-01
2.146611e-01
2.153335e-01
2.106216e-01
2.057095e-01
2.111882e-01
2.060681e-01
2.011213e-01
1.953771e-01
2.290532e-01
2.062954e-01
2.006948e-01
1.949882e-01
1.914302e-01
1.838979e-01
1.823960e-01
1.870047e-01
1.746527e-01
2.017576e-01
1.915399e-01
2.313659e-01
1.795053e-01
1.649378e-01
1.713133e-01
1.653748e-01
1.590083e-01
1.539226e-01
1.516354e-01
1.564046e-01
1.500718e-01
1.451036e-01
1.413990e-01
1.466852e-01
1.390861e-01
1.354812e-01
1.315792e-01
1.281173e-01
1.252826e-01
1.219593e-01
1.149650e-01
1.125299e-01
1.024201e-01
1.395727e-01
1.239472e-01
1.116548e-01
1.018203e-01
9.150804e-02
2.214144e-01
2.162598e-01
2.315041e-01
2.290309e-01
2.305251e-01
2.251131e-01
2.271783e-01
2.225327e-01
2.167572e-01
2.257060e-01
2.287841e-01
2.311798e-01
1.171420e-01
1.052597e-01
9.263185e-02
1.167421e-01
1.027782e-01
8.996016e-02
2.212132e-01
2.160581e-01
2.314919e-01
2.290010e-01
2.304649e-01
2.250781e-01
2.270699e-01
2.223578e-01
2.165220e-01
1.167386e-01
1.050885e-01
9.257987e-02
1.173970e-01
1.032281e-01
9.011283e-02
2.314579e-01
2.288824e-01
2.302809e-01
2.248795e-01
2.267015e-01
2.219831e-01
2.164736e-01
1.179316e-01
1.057976e-01
9.267525e-02
2.312359e-01
2.278969e-01
2.242336e-01
2.216280e-01
2.180179e-01
2.166370e-01
2.081839e-01
1.171446e-01
1.038708e-01
9.084069e-02
1.429715e-01
1.293143e-01
1.155543e-01
1.007109e-01
8.989696e-02
2.221823e-01
2.173270e-01
2.315133e-01
2.290893e-01
2.305205e-01
2.252791e-01
2.272258e-01
2.225022e-01
2.168748e-01
1.196698e-01
1.072402e-01
9.382059e-02
1.174373e-01
1.036890e-01
2.147247e-01
2.202039e-01
2.243544e-01
2.278304e-01
9.045713e-02
2.315291e-01
2.292011e-01
2.257685e-01
1.196191e-01
1.074412e-01
9.312991e-02
2.201030e-01
2.146018e-01
2.313241e-01
2.286547e-01
2.302152e-01
2.244812e-01
2.263574e-01
2.186175e-01
2.208651e-01
2.111930e-01
2.144231e-01
1.388747e-01
1.260449e-01
1.132961e-01
1.020456e-01
9.108329e-02
1.144136e-01
1.011645e-01
8.943332e-02
2.313405e-01
2.284818e-01
2.299349e-01
2.241267e-01
2.261267e-01
2.213669e-01
2.156814e-01
2.047560e-01
1.156612e-01
1.048880e-01
9.210849e-02
2.316876e-01
2.288304e-01
2.245057e-01
2.214018e-01
2.178164e-01
2.162504e-01
2.074959e-01
1.171809e-01
1.032461e-01
9.053458e-02
1.421103e-01
1.286581e-01
1.151646e-01
1.004907e-01
8.977901e-02
2.211372e-01
2.159520e-01
2.314173e-01
2.288924e-01
2.303999e-01
2.250348e-01
2.268868e-01
2.218804e-01
2.159942e-01
1.188444e-01
1.066517e-01
9.352046e-02
1.158653e-01
1.027298e-01
9.004215e-02
2.215024e-01
2.163838e-01
2.314510e-01
1.962357e-01
2.288897e-01
2.304383e-01
2.249020e-01
2.270424e-01
2.223414e-01
2.164934e-01
1.172074e-01
1.051606e-01
9.232695e-02
1.149476e-01
1.020943e-01
8.977573e-02
2.314418e-01
2.288447e-01
2.301799e-01
2.249112e-01
2.263150e-01
2.209081e-01
2.150511e-01
1.158156e-01
1.048056e-01
9.203585e-02
2.313643e-01
2.292788e-01
2.263088e-01
2.206270e-01
2.207850e-01
2.153993e-01
2.108610e-01
1.160789e-01
1.024783e-01
9.004556e-02
1.463046e-01
1.326415e-01
1.159245e-01
1.029276e-01
9.174237e-02
2.314051e-01
2.286726e-01
2.298539e-01
2.120474e-01
2.179216e-01
2.226478e-01
2.263197e-01
2.286557e-01
2.311192e-01
2.244653e-01
2.260123e-01
2.209678e-01
2.152861e-01
1.158009e-01
1.043488e-01
9.238767e-02
2.315521e-01
2.281698e-01
2.220182e-01
2.168498e-01
2.100024e-01
1.167372e-01
1.031809e-01
9.017204e-02
9.354303e-02
2.264965e-01
2.241860e-01
2.199649e-01
2.195315e-01
2.126909e-01
2.112909e-01
2.135858e-01
2.051088e-01
1.955462e-01
1.997015e-01
2.042896e-01
2.069453e-01
1.867201e-01
1.927930e-01
1.978648e-01
1.974343e-01
1.710286e-01
1.592618e-01
1.498451e-01
1.404720e-01
1.304366e-01
1.192296e-01
1.085955e-01
1.017230e-01
9.292089e-02
1.074039e-01
1.126853e-01
1.222193e-01
1.228556e-01
1.383279e-01
1.350868e-01
1.325633e-01
1.495152e-01
1.457899e-01
1.429045e-01
1.525866e-01
1.637832e-01
1.592597e-01
1.555026e-01
1.768375e-01
1.727536e-01
1.679630e-01
1.644617e-01
1.621449e-01
1.915512e-01
1.719325e-01
1.812084e-01
1.861746e-01
2.302618e-01
9.215831e-02
2.309655e-01
2.306961e-01
2.292172e-01
2.271716e-01
2.316163e-01
2.218667e-01
2.191421e-01
2.159220e-01
1.965941e-01
2.025450e-01
2.094133e-01
2.157143e-01
2.209053e-01
2.250328e-01
2.282714e-01
2.307230e-01
2.315916e-01
2.302154e-01
2.276999e-01
2.243170e-01
2.033344e-01
2.313093e-01
2.293897e-01
2.265792e-01
2.226483e-01
2.181149e-01
2.135838e-01
2.090324e-01
2.317996e-01
2.307142e-01
2.279348e-01
2.257915e-01
2.204935e-01
2.155011e-01
2.108066e-01
2.069186e-01
1.990897e-01
1.928682e-01
9.799394e-02
9.011807e-02
1.191711e-01
1.107944e-01
1.002087e-01
9.245437e-02
1.231098e-01
1.093782e-01
1.571572e-01
1.500036e-01
1.394941e-01
1.258393e-01
1.146078e-01
1.051910e-01
9.659763e-02
9.036683e-02
1.412341e-01
1.299641e-01
2.189467e-01
2.113391e-01
2.030496e-01
1.927110e-01
1.807678e-01
1.674580e-01
1.535002e-01
2.314344e-01
2.294865e-01
2.253570e-01
2.187326e-01
2.102176e-01
1.995869e-01
1.882869e-01
1.761009e-01
1.636974e-01
1.528334e-01
1.403843e-01
1.300198e-01
1.183291e-01
1.050689e-01
9.430544e-02
1.707134e-01
1.618796e-01
1.513464e-01
1.393021e-01
1.282358e-01
1.183356e-01
1.092914e-01
1.013180e-01
9.319673e-02
9.014155e-02
2.056065e-01
1.970964e-01
1.860092e-01
1.729117e-01
1.105583e-01
1.045055e-01
9.403982e-02
1.566438e-01
1.426868e-01
1.288405e-01
1.145381e-01
1.017332e-01
9.183254e-02
2.188040e-01
2.110877e-01
2.025020e-01
1.916459e-01
1.796011e-01
1.666887e-01
1.531983e-01
1.392214e-01
1.268968e-01
1.137096e-01
2.313219e-01
2.294368e-01
2.253985e-01
2.193786e-01
2.103597e-01
1.978082e-01
1.858508e-01
1.731540e-01
1.601887e-01
1.480634e-01
2.312772e-01
2.283610e-01
2.241083e-01
2.192940e-01
2.123751e-01