VARIABLES = "X" "Y" "Z" "FREF"
ZONE T="instant 081"
Nodes=3151, Elements=6298
ZONETYPE=FETriangle
DATAPACKING=BLOCK
VARLOCATION = ([1-3]=NODAL, [4]=CELLCENTERED)
5.000000e-01
2.514257e-01
2.718125e-01
2.877700e-01
3.011592e-01
3.167846e-01
3.327976e-01
3.490145e-01
3.661349e-01
3.838589e-01
4.004151e-01
4.146580e-01
4.274986e-01
4.392327e-01
4.498802e-01
4.591981e-01
4.670189e-01
4.729184e-01
4.782965e-01
4.839358e-01
4.888585e-01
4.927541e-01
4.956201e-01
4.977246e-01
4.991039e-01
4.998332e-01
2.356000e-01
2.356000e-01
2.356000e-01
2.356000e-01
2.356000e-01
2.356000e-01
2.356000e-01
2.356000e-01
2.356000e-01
2.356000e-01
2.356000e-01
2.356000e-01
3.850816e-01
3.839297e-01
3.806722e-01
3.752698e-01
3.680044e-01
3.630630e-01
3.567911e-01
3.484230e-01
3.407696e-01
3.333293e-01
3.251071e-01
3.152881e-01
3.073344e-01
2.998716e-01
2.928262e-01
2.837266e-01
2.744755e-01
2.679452e-01
2.590156e-01
2.478117e-01
3.856000e-01
4.895124e-01
4.783064e-01
4.678562e-01
4.574896e-01
4.463315e-01
4.351068e-01
4.242824e-01
4.137249e-01
4.034786e-01
3.940647e-01
4.103714e-01
2.786914e-01
2.670662e-01
4.210468e-01
4.038788e-01
2.853182e-01
2.952436e-01
2.766558e-01
2.959405e-01
2.551773e-01
2.977399e-01
2.836930e-01
3.010443e-01
3.120187e-01
4.902759e-01
3.244662e-01
3.380323e-01
3.184301e-01
3.274828e-01
3.720011e-01
3.805163e-01
4.114310e-01
3.950223e-01
3.930978e-01
4.187159e-01
4.249854e-01
4.084996e-01
4.857460e-01
4.794654e-01
4.178681e-01
4.288499e-01
4.228005e-01
4.375671e-01
4.308787e-01
4.397166e-01
3.932497e-01
4.094756e-01
4.010831e-01
3.866740e-01
2.775373e-01
2.630149e-01
2.490566e-01
2.531671e-01
2.527830e-01
2.694519e-01
2.850231e-01
2.536638e-01
2.696271e-01
2.858442e-01
3.015224e-01
2.451425e-01
2.559110e-01
2.708831e-01
2.867014e-01
4.881334e-01
3.030365e-01
3.177886e-01
3.196700e-01
3.340235e-01
3.227338e-01
3.348368e-01
3.495192e-01
2.515483e-01
2.695748e-01
2.878922e-01
3.065341e-01
3.016327e-01
3.019188e-01
3.100256e-01
3.187952e-01
3.352141e-01
3.481811e-01
3.566480e-01
3.664896e-01
2.524040e-01
2.691730e-01
2.862092e-01
3.072787e-01
3.206951e-01
3.326403e-01
3.464735e-01
3.365258e-01
3.468027e-01
3.503047e-01
3.614494e-01
3.728426e-01
3.861088e-01
3.155083e-01
3.271252e-01
3.405176e-01
3.612756e-01
4.844693e-01
4.770483e-01
4.732947e-01
4.669896e-01
3.744714e-01
3.870346e-01
4.006469e-01
3.214092e-01
3.513629e-01
3.636415e-01
3.754620e-01
3.876872e-01
4.000855e-01
4.136662e-01
3.345746e-01
3.461424e-01
3.599241e-01
3.651075e-01
3.780127e-01
3.905311e-01
4.804992e-01
4.722762e-01
4.664396e-01
4.602389e-01
4.556356e-01
3.993921e-01
4.114254e-01
4.252259e-01
3.753504e-01
3.909655e-01
4.075484e-01
4.211817e-01
4.357889e-01
3.397286e-01
3.524085e-01
3.641669e-01
3.781491e-01
4.039894e-01
4.187177e-01
4.316861e-01
4.456804e-01
3.901292e-01
4.038277e-01
4.156139e-01
4.292237e-01
4.413232e-01
4.545278e-01
4.463558e-01
4.541156e-01
3.553799e-01
3.675804e-01
3.790081e-01
3.920918e-01
4.035307e-01
4.155865e-01
4.257087e-01
4.388960e-01
4.498003e-01
4.625051e-01
4.277906e-01
4.331443e-01
4.754081e-01
4.671338e-01
4.611788e-01
4.536301e-01
4.496840e-01
4.436763e-01
4.377814e-01
4.359524e-01
4.428482e-01
4.480973e-01
4.544867e-01
4.609140e-01
4.693559e-01
2.356000e-01
4.997721e-01
4.983312e-01
4.959441e-01
4.929043e-01
4.878996e-01
4.820408e-01
4.743397e-01
4.644181e-01
4.522988e-01
4.397846e-01
4.282149e-01
4.156689e-01
4.026119e-01
3.885758e-01
3.761543e-01
3.657411e-01
3.552208e-01
3.431189e-01
3.300609e-01
3.167173e-01
3.032124e-01
2.893692e-01
2.753862e-01
2.611790e-01
2.475258e-01
5.000000e-01
3.940305e-01
4.037758e-01
4.134092e-01
4.246050e-01
4.349225e-01
4.455141e-01
4.568854e-01
4.689871e-01
4.801382e-01
4.906976e-01
3.856000e-01
2.455665e-01
2.553602e-01
2.678955e-01
2.844573e-01
2.960961e-01
3.069123e-01
3.174723e-01
3.271766e-01
3.351847e-01
3.407455e-01
3.481778e-01
3.549939e-01
3.602304e-01
3.643119e-01
3.680290e-01
3.733098e-01
3.772236e-01
3.794001e-01
3.815299e-01
3.836167e-01
3.851486e-01
2.356000e-01
2.356000e-01
2.356000e-01
2.356000e-01
2.356000e-01
2.356000e-01
2.356000e-01
2.356000e-01
2.356000e-01
2.356000e-01
2.356000e-01
4.136273e-01
4.332954e-01
2.680679e-01
2.971406e-01
2.869791e-01
3.909336e-01
3.941226e-01
4.053577e-01
4.032595e-01
4.175081e-01
4.171055e-01
4.229244e-01
4.079463e-01
4.459937e-01
2.493040e-01
4.378418e-01
4.239641e-01
4.390093e-01
4.144425e-01
4.319805e-01
4.237761e-01
4.432404e-01
4.349420e-01
2.514669e-01
3.031984e-01
2.701031e-01
2.641189e-01
2.532764e-01
2.952274e-01
3.181084e-01
2.819290e-01
3.156747e-01
2.988566e-01
3.217726e-01
3.089666e-01
3.307350e-01
3.398837e-01
2.595405e-01
3.942449e-01
2.504669e-01
2.611258e-01
2.789335e-01
3.872721e-01
3.974984e-01
4.047853e-01
4.883474e-01
4.764541e-01
4.832504e-01
4.852827e-01
4.593924e-01
4.653139e-01
4.696905e-01
4.739344e-01
2.777817e-01
2.668770e-01
2.511786e-01
4.796730e-01
4.575836e-01
4.613648e-01
4.658653e-01
4.753846e-01
4.501361e-01
4.524614e-01
4.644846e-01
4.696788e-01
3.852119e-01
3.895949e-01
3.969077e-01
4.374653e-01
4.469155e-01
4.587374e-01
4.287935e-01
4.406475e-01
4.444996e-01
4.499963e-01
4.523632e-01
4.540995e-01
4.573474e-01
3.750967e-01
4.015422e-01
4.123936e-01
4.251770e-01
4.324028e-01
4.399108e-01
4.471351e-01
3.781759e-01
3.809556e-01
3.876563e-01
4.159164e-01
4.246055e-01
2.917883e-01
2.813297e-01
4.298780e-01
4.358184e-01
3.632234e-01
3.914404e-01
3.980722e-01
4.089618e-01
4.151071e-01
4.190516e-01
4.241680e-01
3.667912e-01
3.683890e-01
3.739720e-01
3.976891e-01
4.043083e-01
4.076119e-01
4.121514e-01
3.749560e-01
3.045999e-01
2.926449e-01
2.796262e-01
2.651112e-01
2.493598e-01
3.790795e-01
3.887018e-01
3.930294e-01
3.953247e-01
3.994475e-01
3.471870e-01
3.510233e-01
3.514011e-01
3.573987e-01
3.761249e-01
3.799723e-01
3.826186e-01
3.864448e-01
3.571234e-01
3.606637e-01
3.618093e-01
3.672309e-01
3.705700e-01
3.730604e-01
2.520526e-01
2.680060e-01
2.882518e-01
3.024543e-01
3.156229e-01
3.296404e-01
3.432714e-01
3.265967e-01
3.285087e-01
3.377811e-01
3.408867e-01
3.390282e-01
3.448649e-01
3.490657e-01
3.571123e-01
3.567396e-01
3.578591e-01
3.177484e-01
3.057424e-01
2.938251e-01
2.810418e-01
2.664594e-01
2.508528e-01
3.203344e-01
3.314873e-01
3.435864e-01
2.976978e-01
3.079478e-01
3.189651e-01
3.308853e-01
5.000000e-01
5.000000e-01
5.000000e-01
5.000000e-01
5.000000e-01
5.000000e-01
5.000000e-01
5.000000e-01
5.000000e-01
5.000000e-01
5.000000e-01
5.000000e-01
5.000000e-01
5.000000e-01
5.000000e-01
5.000000e-01
5.000000e-01
5.000000e-01
5.000000e-01
5.000000e-01
5.000000e-01
5.000000e-01
5.000000e-01
5.000000e-01
5.000000e-01
5.000000e-01
5.000000e-01
5.000000e-01
5.000000e-01
5.000000e-01
5.000000e-01
5.000000e-01
5.000000e-01
2.356000e-01
2.356000e-01
2.356000e-01
2.356000e-01
2.356000e-01
2.356000e-01
2.356000e-01
2.356000e-01
2.356000e-01
2.356000e-01
2.356000e-01
2.356000e-01
2.356000e-01
2.356000e-01
2.356000e-01
2.356000e-01
2.356000e-01
2.356000e-01
2.356000e-01
2.356000e-01
2.356000e-01
2.356000e-01
2.356000e-01
2.356000e-01
2.356000e-01
2.356000e-01
2.356000e-01
2.356000e-01
2.356000e-01
2.356000e-01
2.356000e-01
2.356000e-01
2.356000e-01
3.965007e-01
4.047630e-01
4.013024e-01
4.093246e-01
4.177614e-01
4.364030e-01
4.228651e-01
4.287501e-01
3.679712e-01
3.756005e-01
3.815963e-01
3.828393e-01
3.886805e-01
3.932407e-01
3.979566e-01
4.166848e-01
4.033818e-01
3.965501e-01
4.093269e-01
4.219474e-01
3.898870e-01
3.898869e-01
2.583475e-01
2.492996e-01
4.011867e-01
4.138983e-01
4.265721e-01
4.128191e-01
4.210686e-01
4.295210e-01
4.242002e-01
4.318690e-01
4.348969e-01
4.509808e-01
4.257317e-01
4.350556e-01
4.216100e-01
4.395449e-01
4.280820e-01
4.158613e-01
4.436650e-01
4.329315e-01
4.224989e-01
4.117893e-01
4.432448e-01
4.513965e-01
4.484698e-01
4.405715e-01
4.337374e-01
2.760884e-01
2.649799e-01
2.523573e-01
4.082089e-01
4.159244e-01
4.225069e-01
4.024181e-01
4.100807e-01
3.967371e-01
2.489169e-01
2.589157e-01
2.612260e-01
2.710825e-01
2.738911e-01
2.816181e-01
2.841261e-01
2.869670e-01
2.876387e-01
2.936608e-01
2.971895e-01
3.002927e-01
3.011899e-01
3.065473e-01
3.104151e-01
3.137492e-01
3.092532e-01
3.149739e-01
3.198464e-01
3.237710e-01
3.272430e-01
3.185141e-01
3.236328e-01
3.287833e-01
3.333268e-01
3.371610e-01
3.406714e-01
3.272276e-01
2.922311e-01
2.815647e-01
2.701357e-01
2.582324e-01
2.499614e-01
3.326125e-01
3.377167e-01
3.425470e-01
3.468524e-01
3.504557e-01
3.539119e-01
3.408906e-01
3.466243e-01
3.515951e-01
3.562117e-01
3.603666e-01
3.634719e-01
3.668205e-01
3.483485e-01
3.548788e-01
3.606802e-01
3.652107e-01
3.697275e-01
3.739681e-01
3.758519e-01
3.792772e-01
3.556589e-01
3.623506e-01
3.689086e-01
3.749075e-01
3.782556e-01
3.830901e-01
3.882868e-01
3.866674e-01
3.916616e-01
4.015253e-01
4.323271e-01
3.857000e-01
3.972652e-01
4.097350e-01
3.079290e-01
2.979622e-01
2.872638e-01
2.763722e-01
2.663804e-01
2.566224e-01
4.221408e-01
3.775789e-01
3.903519e-01
4.036152e-01
4.164417e-01
4.278214e-01
4.382808e-01
4.037403e-01
4.108822e-01
4.156502e-01
4.201355e-01
4.240575e-01
4.291290e-01
4.342786e-01
4.392000e-01
4.394091e-01
4.419431e-01
4.447953e-01
4.467550e-01
4.487723e-01
4.512792e-01
4.293483e-01
4.356168e-01
4.410155e-01
4.461011e-01
4.509744e-01
4.549816e-01
4.574735e-01
4.390439e-01
4.416969e-01
4.466400e-01
4.526274e-01
4.570091e-01
4.603168e-01
4.632022e-01
4.492421e-01
4.588224e-01
4.575167e-01
4.643296e-01
4.658707e-01
4.685050e-01
4.714737e-01
4.735872e-01
4.578267e-01
4.682532e-01
4.743256e-01
4.781437e-01
4.660118e-01
4.748693e-01
4.787444e-01
4.820280e-01
4.794822e-01
4.860230e-01
3.238631e-01
3.141496e-01
3.038760e-01
2.933640e-01
2.829782e-01
2.724405e-01
2.601728e-01
2.508376e-01
4.839670e-01
4.898257e-01
4.858783e-01
4.906366e-01
4.955365e-01
4.985978e-01
4.968766e-01
4.946576e-01
4.943507e-01
4.920436e-01
4.909098e-01
4.913687e-01
4.866222e-01
4.871739e-01
4.879469e-01
4.889264e-01
4.815332e-01
4.820666e-01
4.829336e-01
4.840445e-01
4.853259e-01
4.760244e-01
4.769785e-01
4.782233e-01
4.796989e-01
4.813017e-01
4.750019e-01
4.769239e-01
4.689806e-01
4.700623e-01
4.714283e-01
4.731097e-01
4.609878e-01
4.621812e-01
4.636237e-01
4.654989e-01
4.677445e-01
4.700753e-01
4.722015e-01
4.522701e-01
4.533986e-01
4.547891e-01
4.567762e-01
4.594412e-01
4.623650e-01
4.649574e-01
4.668323e-01
4.337512e-01
4.344944e-01
4.438652e-01
4.449740e-01
4.467782e-01
4.500317e-01
4.534866e-01
4.575241e-01
4.583622e-01
4.613033e-01
4.356334e-01
4.445136e-01
4.297312e-01
2.798525e-01
3.015132e-01
2.893700e-01
3.060632e-01
3.002564e-01
3.216905e-01
3.176722e-01
3.116451e-01
3.416879e-01
3.344230e-01
3.399488e-01
3.302193e-01
3.201339e-01
3.098516e-01
2.994887e-01
2.889574e-01
2.779756e-01
2.674506e-01
2.570658e-01
3.287189e-01
3.228079e-01
3.591964e-01
3.518369e-01
3.453510e-01
3.394306e-01
3.336589e-01
3.685993e-01
3.617694e-01
3.556116e-01
3.498237e-01
3.441922e-01
3.846092e-01
3.776409e-01
3.713122e-01
3.654944e-01
3.599292e-01
3.544106e-01
3.995257e-01
3.928161e-01
3.863800e-01
3.805675e-01
3.751260e-01
3.697773e-01
3.642868e-01
4.129660e-01
4.073368e-01
4.006767e-01
3.949247e-01
3.896359e-01
3.846047e-01
3.793267e-01
3.737276e-01
4.240229e-01
4.219873e-01
4.140023e-01
4.085272e-01
4.032675e-01
3.987369e-01
3.939269e-01
3.883370e-01
3.826769e-01
4.570351e-01
4.495675e-01
4.401378e-01
4.294520e-01
4.175872e-01
4.047487e-01
3.911744e-01
4.475173e-01
4.371920e-01
4.255891e-01
4.123850e-01
3.991911e-01
2.495277e-01
2.481552e-01
2.506611e-01
2.640947e-01
2.599115e-01
2.677524e-01
2.786592e-01
2.490621e-01
2.613440e-01
2.725418e-01
2.823217e-01
2.928423e-01
2.498966e-01
2.627994e-01
2.747684e-01
2.858819e-01
2.963141e-01
3.067522e-01
3.561522e-01
3.461337e-01
3.360716e-01
3.259667e-01
3.157621e-01
3.053873e-01
2.947608e-01
2.840327e-01
2.730031e-01
2.606275e-01
2.501498e-01
2.465323e-01
2.533705e-01
2.648264e-01
2.767678e-01
2.883528e-01
2.994251e-01
3.100883e-01
3.204921e-01
2.457300e-01
2.490878e-01
2.595041e-01
2.684992e-01
2.792864e-01
2.906543e-01
3.019483e-01
3.129639e-01
3.237157e-01
3.341812e-01
2.526799e-01
2.630154e-01
2.729919e-01
2.826316e-01
2.932588e-01
3.043429e-01
3.154413e-01
3.263760e-01
3.371531e-01
3.480097e-01
3.598034e-01
2.471760e-01
2.574265e-01
2.667359e-01
2.768076e-01
2.865355e-01
2.961772e-01
3.068534e-01
3.177972e-01
3.287523e-01
3.395595e-01
3.501806e-01
3.607917e-01
3.702569e-01
2.480848e-01
2.595766e-01
2.694772e-01
2.802665e-01
2.905553e-01
2.999765e-01
3.091174e-01
3.202090e-01
3.309703e-01
3.418470e-01
3.524895e-01
3.628771e-01
3.735666e-01
3.815797e-01
2.425449e-01
2.497849e-01
2.605534e-01
2.726328e-01
2.811976e-01
2.942391e-01
3.044057e-01
3.133781e-01
3.210165e-01
3.338203e-01
3.437527e-01
3.547762e-01
3.651523e-01
3.750135e-01
3.872617e-01
3.928174e-01
3.723485e-01
3.617695e-01
3.516016e-01
3.416851e-01
3.317189e-01
3.215702e-01
3.111751e-01
3.005298e-01
2.895325e-01
2.779429e-01
2.661362e-01
2.527154e-01
4.993375e-01
4.997690e-01
4.977585e-01
4.989316e-01
4.997087e-01
4.953698e-01
4.972821e-01
4.987139e-01
4.996549e-01
4.893057e-01
4.922962e-01
4.948243e-01
4.969191e-01
4.985403e-01
4.996084e-01
4.775149e-01
4.842559e-01
4.882866e-01
4.915234e-01
4.942750e-01
4.965732e-01
4.983671e-01
4.995592e-01
4.796910e-01
4.836795e-01
4.873926e-01
4.907500e-01
4.936977e-01
4.961897e-01
4.981558e-01
4.994886e-01
4.697985e-01
4.739096e-01
4.781478e-01
4.823891e-01
4.863206e-01
4.898819e-01
4.930256e-01
4.956971e-01
4.978263e-01
4.993228e-01
4.997158e-01
4.609471e-01
4.666614e-01
4.716975e-01
4.764802e-01
4.809778e-01
4.851224e-01
4.888731e-01
4.921825e-01
4.949835e-01
4.971765e-01
4.986319e-01
4.996234e-01
4.443320e-01
4.519735e-01
4.585430e-01
4.643437e-01
4.697116e-01
4.747508e-01
4.794454e-01
4.837630e-01
4.876685e-01
4.911160e-01
4.940506e-01
4.964263e-01
4.982826e-01
4.995382e-01
4.234542e-01
4.341593e-01
4.425877e-01
4.498834e-01
4.562511e-01
4.621429e-01
3.880983e-01
3.769120e-01
3.665158e-01
3.569084e-01
3.472881e-01
3.374447e-01
3.273149e-01
3.168739e-01
3.060750e-01
2.948393e-01
2.831962e-01
2.709905e-01
2.587712e-01
4.676929e-01
4.728991e-01
4.777372e-01
4.821884e-01
4.862225e-01
4.898134e-01
4.929665e-01
4.956926e-01
4.979491e-01
4.994518e-01
2.487966e-01
2.622084e-01
2.757250e-01
2.893646e-01
3.030962e-01
3.168629e-01
3.305924e-01
3.442027e-01
3.576114e-01
3.707588e-01
3.836562e-01
3.962947e-01
4.085884e-01
4.206120e-01
4.320743e-01
4.427701e-01
4.525849e-01
4.619695e-01
4.711572e-01
4.775655e-01
4.836258e-01
4.900159e-01
4.944563e-01
4.978487e-01
4.137318e-01
4.252256e-01
4.331562e-01
4.409826e-01
4.475600e-01
4.538373e-01
4.598578e-01
4.655478e-01
4.708537e-01
4.757884e-01
4.803452e-01
4.844563e-01
4.881796e-01
4.916274e-01
4.946581e-01
4.977592e-01
4.991773e-01
2.495194e-01
2.635113e-01
2.775769e-01
2.917003e-01
3.058487e-01
3.199710e-01
3.340038e-01
3.478791e-01
3.615352e-01
3.749245e-01
3.880046e-01
4.007164e-01
4.129924e-01
4.247580e-01
4.359012e-01
4.463549e-01
4.560738e-01
4.650533e-01
4.730324e-01
4.800704e-01
4.862628e-01
4.916231e-01
4.958186e-01
4.987520e-01
2.502211e-01
2.648311e-01
2.794502e-01
2.940755e-01
3.086718e-01
3.231848e-01
3.375508e-01
3.517051e-01
3.655859e-01
3.791346e-01
3.922903e-01
4.049868e-01
4.171550e-01
4.287260e-01
4.396354e-01
4.498277e-01
4.592453e-01
4.678228e-01
4.755013e-01
4.822860e-01
4.881355e-01
4.929843e-01
4.966987e-01
4.991197e-01
2.509307e-01
2.661686e-01
2.813914e-01
2.965730e-01
3.116574e-01
3.265805e-01
3.412778e-01
3.556857e-01
3.697422e-01
4.028721e-01
3.913505e-01
3.804357e-01
3.715111e-01
3.624018e-01
3.529558e-01
3.431563e-01
3.329959e-01
3.224667e-01
3.115513e-01
3.002435e-01
2.885110e-01
2.763427e-01
2.631753e-01
2.528221e-01
3.833857e-01
3.965546e-01
4.091857e-01
4.212164e-01
4.325879e-01
4.432471e-01
4.531430e-01
4.622244e-01
4.704463e-01
4.777761e-01
4.841822e-01
4.896133e-01
4.940049e-01
4.972699e-01
4.993040e-01
2.515719e-01
2.675687e-01
2.835159e-01
2.993234e-01
3.149192e-01
3.302431e-01
3.452393e-01
3.598535e-01
3.740295e-01
3.877125e-01
4.008476e-01
4.133764e-01
4.252385e-01
4.363797e-01
4.467564e-01
4.563254e-01
4.650459e-01
4.728865e-01
4.798207e-01
4.858116e-01
4.908143e-01
4.947828e-01
4.976667e-01
4.994164e-01
2.524213e-01
2.693454e-01
2.860886e-01
3.025260e-01
3.185991e-01
3.342690e-01
3.494973e-01
3.642481e-01
3.784776e-01
3.921479e-01
4.052132e-01
4.176102e-01
4.292700e-01
4.401379e-01
4.501931e-01
4.593987e-01
4.677243e-01
4.751519e-01
4.816684e-01
4.872348e-01
4.918206e-01
4.954051e-01
4.979684e-01
4.994975e-01
2.539121e-01
2.718790e-01
2.893881e-01
3.063667e-01
3.228286e-01
3.387514e-01
3.540969e-01
3.688828e-01
3.830839e-01
3.967115e-01
4.096963e-01
4.219453e-01
4.333725e-01
4.439006e-01
4.535869e-01
4.623790e-01
4.702812e-01
4.772740e-01
4.833675e-01
4.885025e-01
4.926894e-01
4.959339e-01
4.982238e-01
4.995676e-01
2.560062e-01
2.753869e-01
2.935892e-01
3.109222e-01
3.277356e-01
3.438274e-01
3.590278e-01
3.736597e-01
3.877531e-01
4.014571e-01
4.143581e-01
4.264508e-01
4.376674e-01
4.477180e-01
4.569461e-01
4.652206e-01
4.727747e-01
4.793227e-01
4.849648e-01
4.896120e-01
4.934483e-01
4.964247e-01
4.164882e-01
4.051562e-01
3.926277e-01
3.854457e-01
3.770236e-01
3.680511e-01
3.586468e-01
3.488237e-01
3.386092e-01
3.280317e-01
3.170996e-01
3.058078e-01
2.941787e-01
2.823179e-01
2.710070e-01
2.587955e-01
4.984819e-01
4.996451e-01
2.602384e-01
2.814285e-01
2.983021e-01
3.160627e-01
3.336752e-01
3.499827e-01
3.641457e-01
3.767119e-01
3.926681e-01
4.066623e-01
4.192150e-01
4.310887e-01
4.426854e-01
4.519637e-01
4.597264e-01
4.677265e-01
4.755850e-01
4.816480e-01
4.861818e-01
4.904533e-01
4.940951e-01
4.969963e-01
4.988684e-01
4.997039e-01
4.997108e-01
4.995976e-01
4.987442e-01
4.997335e-01
4.993118e-01
4.983286e-01
4.970196e-01
4.996025e-01
4.987562e-01
4.977125e-01
4.962311e-01
4.944964e-01
4.993664e-01
4.983179e-01
4.969220e-01
4.952769e-01
4.933028e-01
4.911280e-01
4.996179e-01
4.985749e-01
4.976781e-01
4.961232e-01
4.941902e-01
4.919863e-01
4.895265e-01
4.868795e-01
4.818075e-01
4.994887e-01
4.983692e-01
4.968122e-01
4.951631e-01
4.930392e-01
4.905600e-01
4.878268e-01
4.848995e-01
4.760309e-01
4.997309e-01
4.992347e-01
4.979955e-01
4.962434e-01
4.941295e-01
4.917879e-01
4.890672e-01
4.860294e-01
4.827889e-01
4.794382e-01
4.695321e-01
4.995752e-01
4.986883e-01
4.974432e-01
4.955709e-01
4.932207e-01
4.905171e-01
4.875235e-01
4.841986e-01
4.805826e-01
4.768599e-01
4.731516e-01
4.993200e-01
4.982358e-01
4.967168e-01
4.947492e-01
4.922439e-01
4.892935e-01
4.859817e-01
4.823568e-01
4.784294e-01
4.741736e-01
4.700157e-01
4.660241e-01
4.619457e-01
4.528470e-01
4.996587e-01
4.986551e-01
4.976583e-01
4.960002e-01
4.938234e-01
4.911630e-01
4.880228e-01
4.844656e-01
4.805306e-01
4.762849e-01
4.717871e-01
4.666672e-01
4.622399e-01
4.581158e-01
4.188110e-01
4.290548e-01
4.995419e-01
4.985921e-01
4.970712e-01
4.952615e-01
4.929018e-01
4.900273e-01
4.866832e-01
4.829127e-01
4.787531e-01
4.741617e-01
4.693008e-01
4.644358e-01
4.575698e-01
4.536278e-01
4.498556e-01
4.407609e-01
2.356000e-01
2.356000e-01
2.356000e-01
2.356000e-01
2.356000e-01
2.356000e-01
2.356000e-01
2.356000e-01
2.356000e-01
2.356000e-01
2.356000e-01
2.356000e-01
2.356000e-01
2.356000e-01
2.356000e-01
2.356000e-01
2.356000e-01
2.356000e-01
2.356000e-01
2.356000e-01
2.356000e-01
2.356000e-01
2.356000e-01
2.356000e-01
2.356000e-01
2.356000e-01
2.356000e-01
2.356000e-01
2.356000e-01
2.356000e-01
2.356000e-01
2.356000e-01
2.356000e-01
2.356000e-01
2.356000e-01
2.356000e-01
2.356000e-01
2.356000e-01
2.356000e-01
2.356000e-01
2.356000e-01
2.356000e-01
2.356000e-01
2.356000e-01
2.356000e-01
2.356000e-01
2.356000e-01
2.356000e-01
2.356000e-01
2.356000e-01
2.356000e-01
2.356000e-01
2.356000e-01
2.356000e-01
2.356000e-01
2.356000e-01
2.356000e-01
2.356000e-01
2.356000e-01
2.356000e-01
2.356000e-01
2.356000e-01
2.356000e-01
2.356000e-01
2.356000e-01
2.356000e-01
2.356000e-01
2.356000e-01
2.356000e-01
2.356000e-01
2.356000e-01
2.356000e-01
2.356000e-01
2.356000e-01
2.356000e-01
2.356000e-01
2.356000e-01
2.356000e-01
2.356000e-01
2.356000e-01
2.356000e-01
2.356000e-01
2.356000e-01
2.356000e-01
2.356000e-01
2.356000e-01
2.356000e-01
2.356000e-01
2.356000e-01
2.356000e-01
2.356000e-01
2.356000e-01
2.356000e-01
2.356000e-01
2.356000e-01
2.356000e-01
2.356000e-01
2.356000e-01
2.356000e-01
2.356000e-01
2.356000e-01
2.356000e-01
2.356000e-01
2.356000e-01
2.356000e-01
2.356000e-01
2.356000e-01
2.356000e-01
2.356000e-01
2.356000e-01
2.356000e-01
2.356000e-01
2.356000e-01
2.356000e-01
2.356000e-01
2.356000e-01
2.356000e-01
2.356000e-01
2.356000e-01
2.356000e-01
2.356000e-01
2.356000e-01
2.356000e-01
2.356000e-01
2.356000e-01
2.356000e-01
2.356000e-01
2.356000e-01
2.356000e-01
2.356000e-01
2.356000e-01
2.356000e-01
2.356000e-01
2.356000e-01
2.356000e-01
2.356000e-01
2.356000e-01
2.356000e-01
2.356000e-01
2.356000e-01
2.356000e-01
2.356000e-01
2.356000e-01
2.356000e-01
2.356000e-01
2.356000e-01
2.356000e-01
2.356000e-01
2.356000e-01
2.356000e-01
2.356000e-01
2.356000e-01
2.356000e-01
2.356000e-01
2.356000e-01
2.356000e-01
2.356000e-01
2.356000e-01
2.356000e-01
2.356000e-01
2.356000e-01
2.356000e-01
2.356000e-01
2.356000e-01
2.356000e-01
2.356000e-01
2.356000e-01
2.356000e-01
2.356000e-01
2.356000e-01
2.356000e-01
2.356000e-01
2.356000e-01
2.356000e-01
2.356000e-01
2.356000e-01
2.356000e-01
2.356000e-01
2.356000e-01
2.356000e-01
2.356000e-01
2.356000e-01
2.356000e-01
2.356000e-01
2.356000e-01
2.356000e-01
2.356000e-01
2.356000e-01
2.356000e-01
2.356000e-01
2.356000e-01
2.356000e-01
2.356000e-01
2.356000e-01
2.356000e-01
2.356000e-01
2.356000e-01
2.356000e-01
2.356000e-01
2.356000e-01
2.356000e-01
2.356000e-01
2.356000e-01
2.356000e-01
2.356000e-01
2.356000e-01
2.356000e-01
2.356000e-01
2.356000e-01
2.356000e-01
2.356000e-01
2.356000e-01
2.356000e-01
2.356000e-01
2.356000e-01
2.356000e-01
2.356000e-01
2.356000e-01
2.356000e-01
2.356000e-01
2.356000e-01
2.356000e-01
2.356000e-01
2.356000e-01
2.356000e-01
2.356000e-01
2.356000e-01
2.356000e-01
2.356000e-01
2.356000e-01
2.356000e-01
2.356000e-01
2.356000e-01
2.356000e-01
2.356000e-01
2.356000e-01
2.356000e-01
2.356000e-01
2.356000e-01
2.356000e-01
2.356000e-01
2.356000e-01
2.356000e-01
2.356000e-01
2.356000e-01
2.356000e-01
2.356000e-01
2.356000e-01
2.356000e-01
2.356000e-01
2.356000e-01
2.356000e-01
2.356000e-01
2.356000e-01
2.356000e-01
2.356000e-01
2.356000e-01
2.356000e-01
2.356000e-01
2.356000e-01
2.356000e-01
2.356000e-01
2.356000e-01
2.356000e-01
2.356000e-01
2.356000e-01
2.356000e-01
2.356000e-01
2.356000e-01
2.356000e-01
2.356000e-01
2.356000e-01
2.356000e-01
2.356000e-01
2.356000e-01
2.356000e-01
2.356000e-01
2.356000e-01
2.356000e-01
2.356000e-01
2.356000e-01
2.356000e-01
2.356000e-01
2.356000e-01
2.356000e-01
2.356000e-01
2.356000e-01
2.356000e-01
2.356000e-01
2.356000e-01
2.356000e-01
2.356000e-01
2.356000e-01
2.356000e-01
2.356000e-01
2.356000e-01
2.356000e-01
2.356000e-01
2.356000e-01
2.356000e-01
2.356000e-01
2.356000e-01
2.356000e-01
2.356000e-01
2.356000e-01
2.356000e-01
2.356000e-01
2.356000e-01
2.356000e-01
2.356000e-01
2.356000e-01
2.356000e-01
2.356000e-01
2.356000e-01
2.356000e-01
2.356000e-01
2.356000e-01
2.356000e-01
2.356000e-01
2.356000e-01
2.356000e-01
2.356000e-01
2.356000e-01
2.356000e-01
2.356000e-01
2.356000e-01
2.356000e-01
2.356000e-01
2.356000e-01
2.356000e-01
2.356000e-01
2.356000e-01
2.356000e-01
2.356000e-01
2.356000e-01
2.356000e-01
2.356000e-01
2.356000e-01
2.356000e-01
2.356000e-01
2.356000e-01
2.356000e-01
2.356000e-01
2.356000e-01
2.356000e-01
2.356000e-01
2.356000e-01
2.356000e-01
2.356000e-01
2.356000e-01
2.356000e-01
2.356000e-01
2.356000e-01
2.356000e-01
2.356000e-01
2.356000e-01
2.356000e-01
2.356000e-01
2.356000e-01
2.356000e-01
2.356000e-01
2.356000e-01
2.356000e-01
2.356000e-01
2.356000e-01
2.356000e-01
2.356000e-01
2.356000e-01
2.356000e-01
2.356000e-01
3.856000e-01
3.856000e-01
3.856000e-01
3.856000e-01
3.856000e-01
3.856000e-01
3.856000e-01
3.856000e-01
3.856000e-01
3.856000e-01
3.856000e-01
3.856000e-01
3.856000e-01
3.856000e-01
3.856000e-01
3.856000e-01
3.856000e-01
3.856000e-01
3.856000e-01
3.856000e-01
3.856000e-01
3.856000e-01
3.856000e-01
3.856000e-01
3.856000e-01
3.856000e-01
3.856000e-01
3.856000e-01
3.856000e-01
3.856000e-01
3.856000e-01
3.856000e-01
3.856000e-01
3.471830e-01
3.413183e-01
3.565032e-01
3.459005e-01
3.499539e-01
3.382861e-01
3.373680e-01
3.325490e-01
3.285214e-01
3.437571e-01
3.362924e-01
3.304282e-01
3.400188e-01
3.285039e-01
3.364670e-01
2.594280e-01
3.842561e-01
3.821257e-01
3.775427e-01
3.794580e-01
3.779514e-01
3.739081e-01
3.779996e-01
3.752860e-01
3.725179e-01
3.726487e-01
3.692598e-01
3.656684e-01
3.691034e-01
3.655100e-01
3.618827e-01
3.576425e-01
3.822238e-01
3.650035e-01
3.610228e-01
3.569293e-01
3.544418e-01
3.485139e-01
3.439478e-01
3.484050e-01
3.380232e-01
3.611839e-01
3.527908e-01
3.846348e-01
3.427949e-01
3.303696e-01
3.376477e-01
3.319846e-01
3.263996e-01
3.219428e-01
3.194363e-01
3.240928e-01
3.184597e-01
3.137581e-01
3.101132e-01
3.158341e-01
3.088568e-01
3.041785e-01
3.000388e-01
2.969260e-01
2.932189e-01
2.891929e-01
2.815950e-01
2.775173e-01
2.636579e-01
3.077244e-01
2.914803e-01
2.778580e-01
2.670939e-01
2.541550e-01
3.776378e-01
3.740946e-01
3.850797e-01
3.832370e-01
3.843215e-01
3.803042e-01
3.818192e-01
3.784275e-01
3.744410e-01
3.786403e-01
3.815037e-01
3.841188e-01
2.847554e-01
2.728598e-01
2.557172e-01
2.839186e-01
2.674531e-01
2.491573e-01
3.774491e-01
3.739328e-01
3.850077e-01
3.831225e-01
3.841931e-01
3.802248e-01
3.816550e-01
3.782426e-01
3.742535e-01
2.836457e-01
2.721727e-01
2.567351e-01
2.850232e-01
2.680421e-01
2.492172e-01
3.849606e-01
3.829886e-01
3.840221e-01
3.800322e-01
3.813635e-01
3.779804e-01
3.742204e-01
2.856386e-01
2.733603e-01
2.566259e-01
3.847920e-01
3.822599e-01
3.796696e-01
3.777189e-01
3.753225e-01
3.743069e-01
3.680351e-01
2.852234e-01
2.697915e-01
2.502175e-01
3.116881e-01
2.973691e-01
2.820627e-01
2.635515e-01
2.489990e-01
3.778808e-01
3.744946e-01
3.850359e-01
3.831850e-01
3.842027e-01
3.802851e-01
3.816932e-01
3.782032e-01
3.742429e-01
2.870687e-01
2.748004e-01
2.575995e-01
2.847230e-01
2.687081e-01
3.646778e-01
3.720904e-01
3.766021e-01
3.800017e-01
2.495843e-01
3.849738e-01
3.831377e-01
3.804779e-01
2.867890e-01
2.743513e-01
2.565200e-01
3.758468e-01
3.719388e-01
3.847670e-01
3.825565e-01
3.837683e-01
3.793520e-01
3.806829e-01
3.750792e-01
3.765010e-01
3.695845e-01
3.718728e-01
3.066921e-01
2.933268e-01
2.801642e-01
2.671515e-01
2.525206e-01
2.793548e-01
2.641366e-01
2.477765e-01
3.847320e-01
3.823052e-01
3.833989e-01
3.788297e-01
3.803733e-01
3.767254e-01
3.726423e-01
3.536651e-01
2.815928e-01
2.704242e-01
2.544806e-01
3.851081e-01
3.826447e-01
3.792346e-01
3.767306e-01
3.742134e-01
3.729918e-01
3.660891e-01
2.824371e-01
2.670591e-01
2.489741e-01
3.083623e-01
2.944280e-01
2.796015e-01
2.617991e-01
2.480257e-01
3.763459e-01
3.725731e-01
3.848304e-01
3.826667e-01
3.838762e-01
3.794715e-01
3.809359e-01
3.769479e-01
3.725638e-01
2.841906e-01
2.722709e-01
2.558245e-01
2.808968e-01
2.658461e-01
2.482762e-01
3.764116e-01
3.727015e-01
3.848253e-01
3.452585e-01
3.825668e-01
3.838250e-01
3.792422e-01
3.809119e-01
3.771552e-01
3.728883e-01
2.815350e-01
2.696590e-01
2.540844e-01
2.793357e-01
2.644609e-01
2.475826e-01
3.847570e-01
3.823533e-01
3.834271e-01
3.789802e-01
3.800490e-01
3.755923e-01
3.710849e-01
2.802084e-01
2.689128e-01
2.530300e-01
3.845082e-01
3.826033e-01
3.800785e-01
3.744718e-01
3.753668e-01
3.703478e-01
3.673290e-01
2.793743e-01
2.641918e-01
2.473295e-01
3.109885e-01
2.976816e-01
2.775860e-01
2.642129e-01
2.517859e-01
3.845911e-01
3.816423e-01
3.822218e-01
3.627113e-01
3.696452e-01
3.746718e-01
3.782712e-01
3.805369e-01
3.834325e-01
3.775300e-01
3.785439e-01
3.739796e-01
3.692823e-01
2.791818e-01
2.681073e-01
2.531283e-01
3.844932e-01
3.804839e-01
3.742922e-01
3.699447e-01
3.643421e-01
2.796849e-01
2.641312e-01
2.473376e-01
2.518999e-01
3.785135e-01
3.762546e-01
3.723895e-01
3.719940e-01
3.654663e-01
3.639541e-01
3.658902e-01
3.588266e-01
3.507890e-01
3.536271e-01
3.570191e-01
3.590110e-01
3.426997e-01
3.468866e-01
3.507195e-01
3.491653e-01
3.224023e-01
3.132028e-01
3.062322e-01
2.992276e-01
2.910213e-01
2.811750e-01
2.702348e-01
2.618995e-01
2.519794e-01
2.684149e-01
2.739212e-01
2.837750e-01
2.843982e-01
3.005024e-01
2.966537e-01
2.937412e-01
3.104433e-01
3.061860e-01
3.026081e-01
3.103295e-01
3.236114e-01
3.185026e-01
3.141463e-01
3.352779e-01
3.304006e-01
3.252191e-01
3.211514e-01
3.176279e-01
3.424796e-01
3.252847e-01
3.330104e-01
3.364085e-01
3.823866e-01
2.504457e-01
3.843466e-01
3.841936e-01
3.828812e-01
3.805983e-01
3.850152e-01
3.761823e-01
3.741956e-01
3.714269e-01
3.464795e-01
3.526726e-01
3.607770e-01
3.676687e-01
3.730414e-01
3.770331e-01
3.800766e-01
3.829598e-01
3.850840e-01
3.838814e-01
3.817599e-01
3.785270e-01
3.614148e-01
3.848623e-01
3.833008e-01
3.810181e-01
3.776469e-01
3.737129e-01
3.699568e-01
3.661177e-01
3.852594e-01
3.844325e-01
3.822414e-01
3.805482e-01
3.763738e-01
3.720639e-01
3.681394e-01
3.649579e-01
3.586180e-01
3.527556e-01
2.549745e-01
2.461912e-01
2.844871e-01
2.752942e-01
2.639144e-01
2.527133e-01
2.868278e-01
2.716271e-01
3.218773e-01
3.159594e-01
3.063167e-01
2.925733e-01
2.807089e-01
2.693218e-01
2.581234e-01
2.483967e-01
3.064764e-01
2.956103e-01
3.758909e-01
3.703151e-01
3.640588e-01
3.559957e-01
3.462570e-01
3.346806e-01
3.220025e-01
3.850077e-01
3.836198e-01
3.804707e-01
3.756299e-01
3.694208e-01
3.611264e-01
3.522144e-01
3.419655e-01
3.307720e-01
3.212416e-01
3.099574e-01
2.987356e-01
2.864365e-01
2.696063e-01
2.547303e-01
3.341716e-01
3.266486e-01
3.178905e-01
3.074888e-01
2.962963e-01
2.851498e-01
2.738666e-01
2.625972e-01
2.518758e-01
2.474466e-01
3.660478e-01
3.596088e-01
3.507559e-01
3.398553e-01
2.719747e-01
2.665984e-01
2.526684e-01
3.248908e-01
3.112290e-01
2.965114e-01
2.817717e-01
2.664429e-01
2.532958e-01
3.758289e-01
3.702763e-01
3.638041e-01
3.552479e-01
3.454237e-01
3.343850e-01
3.222504e-01
3.084636e-01
2.946390e-01
2.810538e-01
3.848979e-01
3.835079e-01
3.804826e-01
3.762531e-01
3.698657e-01
3.599727e-01
3.505185e-01
3.398836e-01
3.282957e-01
3.173045e-01
3.848995e-01
3.827071e-01
3.795765e-01
3.761753e-01
3.712059e-01