VARIABLES = "X" "Y" "Z" "FREF"
ZONE T="instant 111"
Nodes=1235, Elements=2466
ZONETYPE=FETriangle
DATAPACKING=BLOCK
VARLOCATION = ([1-3]=NODAL, [4]=CELLCENTERED)
5.000000e-01
3.251313e-01
3.393631e-01
3.567717e-01
3.754491e-01
3.914543e-01
4.068969e-01
4.250941e-01
4.426901e-01
4.581934e-01
4.708684e-01
4.806694e-01
4.871713e-01
4.922156e-01
4.963205e-01
4.985581e-01
4.996989e-01
3.136000e-01
3.136000e-01
3.136000e-01
3.136000e-01
4.631409e-01
4.605216e-01
4.553986e-01
4.475786e-01
4.373057e-01
4.247704e-01
4.100389e-01
3.940427e-01
3.762992e-01
3.574397e-01
3.407251e-01
3.256253e-01
4.636000e-01
4.872605e-01
4.741290e-01
3.395816e-01
3.344983e-01
3.568751e-01
3.789952e-01
4.005663e-01
4.181610e-01
4.340568e-01
4.478461e-01
4.591829e-01
4.693205e-01
4.760159e-01
4.803031e-01
3.136000e-01
4.996111e-01
4.977489e-01
4.937717e-01
4.871245e-01
4.781151e-01
4.683283e-01
4.563160e-01
4.420024e-01
4.283604e-01
4.147557e-01
3.979258e-01
3.795802e-01
3.624245e-01
3.480466e-01
3.354514e-01
3.237378e-01
5.000000e-01
4.751996e-01
4.879341e-01
4.636000e-01
3.286135e-01
3.469862e-01
3.669432e-01
3.874347e-01
4.069386e-01
4.214160e-01
4.330784e-01
4.438376e-01
4.515857e-01
4.573625e-01
4.613136e-01
4.632104e-01
3.136000e-01
3.136000e-01
3.136000e-01
4.808631e-01
4.776137e-01
4.725550e-01
4.652937e-01
4.558255e-01
4.448345e-01
4.315661e-01
4.129023e-01
3.920307e-01
3.731017e-01
3.542169e-01
3.336328e-01
5.000000e-01
5.000000e-01
5.000000e-01
5.000000e-01
5.000000e-01
5.000000e-01
5.000000e-01
5.000000e-01
5.000000e-01
5.000000e-01
5.000000e-01
5.000000e-01
5.000000e-01
5.000000e-01
5.000000e-01
5.000000e-01
5.000000e-01
5.000000e-01
5.000000e-01
5.000000e-01
5.000000e-01
5.000000e-01
5.000000e-01
5.000000e-01
5.000000e-01
5.000000e-01
5.000000e-01
5.000000e-01
5.000000e-01
5.000000e-01
5.000000e-01
5.000000e-01
5.000000e-01
3.136000e-01
3.136000e-01
3.136000e-01
3.136000e-01
3.136000e-01
3.136000e-01
3.136000e-01
3.136000e-01
3.136000e-01
3.136000e-01
3.136000e-01
3.136000e-01
3.136000e-01
3.136000e-01
3.136000e-01
3.136000e-01
3.136000e-01
3.136000e-01
3.136000e-01
3.136000e-01
3.136000e-01
3.136000e-01
3.136000e-01
3.136000e-01
3.136000e-01
3.136000e-01
3.136000e-01
3.136000e-01
3.136000e-01
3.136000e-01
3.136000e-01
3.136000e-01
3.136000e-01
4.473677e-01
4.382292e-01
4.477137e-01
4.254543e-01
4.408413e-01
4.323189e-01
4.565560e-01
4.606339e-01
4.346990e-01
4.512852e-01
4.435189e-01
4.530324e-01
4.420595e-01
4.552138e-01
3.317051e-01
4.305770e-01
4.447514e-01
4.572413e-01
4.260658e-01
4.346474e-01
4.424203e-01
4.578448e-01
4.772870e-01
4.401037e-01
4.325043e-01
4.469569e-01
4.579881e-01
4.671019e-01
4.822249e-01
4.833216e-01
4.788178e-01
4.847611e-01
4.892946e-01
4.914209e-01
3.394752e-01
3.465730e-01
3.350912e-01
3.262116e-01
3.506468e-01
3.556993e-01
3.650938e-01
3.677976e-01
3.752444e-01
3.817420e-01
3.758956e-01
3.886478e-01
3.881321e-01
3.935650e-01
3.987472e-01
4.009274e-01
4.045136e-01
4.063362e-01
4.105058e-01
4.153420e-01
4.113364e-01
4.167701e-01
4.222992e-01
4.205249e-01
4.267689e-01
4.310960e-01
4.709361e-01
4.705005e-01
3.633261e-01
3.517847e-01
3.407611e-01
3.290073e-01
4.657817e-01
4.608997e-01
4.537989e-01
4.449955e-01
4.629852e-01
4.571526e-01
4.751374e-01
4.740340e-01
4.716231e-01
4.681852e-01
3.492355e-01
3.650046e-01
3.706198e-01
3.846764e-01
3.881589e-01
3.829469e-01
4.079336e-01
4.075607e-01
4.010176e-01
3.956338e-01
4.287345e-01
4.435410e-01
4.256199e-01
4.164573e-01
4.163875e-01
4.075089e-01
4.972613e-01
4.942119e-01
4.940657e-01
4.894638e-01
4.896638e-01
4.842353e-01
4.832325e-01
4.834437e-01
4.763573e-01
3.804813e-01
3.686860e-01
3.572109e-01
3.458501e-01
3.349987e-01
4.778961e-01
4.755989e-01
4.754511e-01
4.582238e-01
4.680219e-01
4.651829e-01
4.666445e-01
4.682462e-01
4.706756e-01
4.179922e-01
4.361728e-01
4.508005e-01
4.635745e-01
4.580341e-01
4.307776e-01
4.463467e-01
3.262679e-01
3.280456e-01
3.397961e-01
3.268151e-01
3.296661e-01
3.434609e-01
3.546234e-01
3.393869e-01
3.482138e-01
3.599894e-01
3.709481e-01
3.285844e-01
3.414029e-01
3.536467e-01
3.649887e-01
3.772269e-01
3.888179e-01
3.254977e-01
3.332352e-01
3.448064e-01
3.570092e-01
3.693209e-01
3.817859e-01
3.951971e-01
4.080335e-01
4.215085e-01
3.280346e-01
3.396069e-01
3.503488e-01
3.609036e-01
3.728363e-01
3.854046e-01
3.979484e-01
4.140080e-01
4.249697e-01
4.322626e-01
3.971836e-01
3.856305e-01
3.742439e-01
3.630105e-01
3.514692e-01
3.387176e-01
3.289237e-01
4.989684e-01
4.996170e-01
4.963775e-01
4.981699e-01
4.994696e-01
4.920839e-01
4.952152e-01
4.976286e-01
4.993375e-01
4.813749e-01
4.865141e-01
4.906700e-01
4.941824e-01
4.970897e-01
4.991709e-01
4.635257e-01
4.731071e-01
4.797041e-01
4.845174e-01
4.889464e-01
4.929621e-01
4.963608e-01
4.988951e-01
4.818372e-01
4.884548e-01
4.950536e-01
4.982247e-01
4.534608e-01
4.990561e-01
4.648955e-01
4.726286e-01
4.766770e-01
4.817019e-01
4.867644e-01
4.912867e-01
4.951225e-01
4.982208e-01
3.263783e-01
3.393044e-01
3.540151e-01
3.697445e-01
3.863165e-01
4.030003e-01
4.192159e-01
4.344150e-01
4.482946e-01
4.611231e-01
4.736637e-01
4.827432e-01
4.899308e-01
4.953454e-01
4.987403e-01
3.271730e-01
4.142468e-01
4.020083e-01
3.909420e-01
3.807094e-01
3.694620e-01
3.575908e-01
3.463220e-01
3.357276e-01
3.413815e-01
3.567625e-01
3.729941e-01
3.897009e-01
4.062921e-01
4.222870e-01
4.372985e-01
4.511400e-01
4.637462e-01
4.747422e-01
4.836550e-01
4.906604e-01
4.957722e-01
4.989247e-01
3.280248e-01
3.429757e-01
3.588376e-01
3.753858e-01
3.922178e-01
4.087813e-01
4.246599e-01
4.395184e-01
4.531285e-01
4.652805e-01
4.757376e-01
4.843640e-01
4.911400e-01
4.960360e-01
4.990065e-01
3.286626e-01
3.441227e-01
3.603403e-01
3.771180e-01
3.940444e-01
4.105995e-01
4.263874e-01
4.410895e-01
4.544592e-01
4.663026e-01
4.764664e-01
4.848670e-01
4.914552e-01
4.961938e-01
4.990488e-01
3.291099e-01
3.449215e-01
3.613918e-01
3.783291e-01
3.953243e-01
4.118678e-01
4.275819e-01
4.421505e-01
4.553428e-01
4.669852e-01
4.769638e-01
4.852039e-01
4.916581e-01
4.962894e-01
4.990733e-01
3.294123e-01
3.454618e-01
3.621011e-01
3.791480e-01
3.961847e-01
4.127193e-01
4.283733e-01
4.428479e-01
4.559176e-01
4.674329e-01
4.772892e-01
4.854229e-01
4.515028e-01
4.605568e-01
4.679945e-01
4.740668e-01
4.800571e-01
4.855763e-01
4.903235e-01
4.942915e-01
4.972919e-01
4.990909e-01
4.997982e-01
4.917863e-01
4.963483e-01
4.990880e-01
3.296154e-01
3.458197e-01
3.625704e-01
3.796853e-01
3.967519e-01
4.132752e-01
4.288910e-01
4.432988e-01
4.562916e-01
4.677227e-01
4.775016e-01
4.855641e-01
4.918691e-01
4.963860e-01
4.990978e-01
3.297562e-01
3.460613e-01
3.628816e-01
3.800464e-01
3.971318e-01
4.136534e-01
4.292401e-01
4.436074e-01
4.565460e-01
4.679236e-01
4.776481e-01
4.856632e-01
4.919270e-01
4.331995e-01
4.176180e-01
4.057284e-01
3.985827e-01
3.881451e-01
3.763621e-01
3.643461e-01
3.532151e-01
3.413555e-01
3.299593e-01
4.964134e-01
4.991053e-01
3.298576e-01
3.462258e-01
3.631100e-01
3.803178e-01
3.974291e-01
4.139497e-01
4.295218e-01
4.438554e-01
4.567568e-01
4.680903e-01
4.777737e-01
4.857484e-01
4.919782e-01
4.964371e-01
4.991115e-01
3.298795e-01
3.463632e-01
3.633282e-01
3.805931e-01
3.977329e-01
4.142640e-01
4.298196e-01
4.441266e-01
4.569875e-01
4.682799e-01
4.779175e-01
4.858495e-01
4.920391e-01
4.964657e-01
4.991186e-01
3.300523e-01
3.466036e-01
3.636294e-01
3.809565e-01
3.981443e-01
4.146856e-01
4.302271e-01
4.444947e-01
4.573093e-01
4.685448e-01
4.781246e-01
4.859959e-01
4.921297e-01
4.965088e-01
4.991296e-01
3.302432e-01
3.468857e-01
3.640507e-01
3.815062e-01
3.987651e-01
4.153219e-01
4.308306e-01
4.450457e-01
4.577895e-01
4.689477e-01
4.784398e-01
4.862227e-01
4.922713e-01
4.965784e-01
4.991483e-01
3.302507e-01
3.472469e-01
3.647298e-01
3.823883e-01
3.997297e-01
4.162747e-01
4.317271e-01
4.458589e-01
4.585065e-01
4.695492e-01
4.789148e-01
4.717013e-01
4.774097e-01
4.825976e-01
4.873475e-01
4.914452e-01
4.947347e-01
4.974986e-01
4.993130e-01
4.865644e-01
4.924878e-01
4.966870e-01
4.991788e-01
3.307026e-01
3.481218e-01
3.659464e-01
3.838009e-01
4.011630e-01
4.176378e-01
4.329949e-01
4.470211e-01
4.595339e-01
4.704152e-01
4.795957e-01
4.870570e-01
4.928015e-01
4.968472e-01
4.992236e-01
3.316087e-01
3.497182e-01
3.679551e-01
3.859064e-01
4.031199e-01
4.194392e-01
4.347056e-01
4.486171e-01
4.609502e-01
4.715961e-01
4.805176e-01
4.877317e-01
4.932380e-01
4.652770e-01
4.970704e-01
4.992813e-01
3.330244e-01
3.525445e-01
3.711387e-01
3.887161e-01
4.054101e-01
4.216481e-01
4.369544e-01
4.507699e-01
4.628256e-01
4.731022e-01
4.816651e-01
4.886387e-01
4.938517e-01
4.973580e-01
4.993295e-01
3.346472e-01
3.501137e-01
3.713074e-01
3.929297e-01
3.357532e-01
3.586967e-01
3.759109e-01
3.910157e-01
4.076103e-01
4.243462e-01
4.399642e-01
4.537015e-01
4.652201e-01
4.747746e-01
4.828502e-01
4.900118e-01
4.948811e-01
4.974891e-01
4.992976e-01
4.995075e-01
4.992467e-01
4.978496e-01
4.995255e-01
4.759606e-01
4.807198e-01
4.852193e-01
4.893236e-01
4.928839e-01
4.957042e-01
4.975375e-01
4.993973e-01
4.986531e-01
4.969435e-01
4.947887e-01
4.992536e-01
4.977621e-01
4.957513e-01
4.931568e-01
4.902013e-01
4.986682e-01
4.968539e-01
4.943622e-01
4.913052e-01
4.877992e-01
4.840933e-01
3.136000e-01
3.136000e-01
3.136000e-01
3.136000e-01
3.136000e-01
3.136000e-01
3.136000e-01
3.136000e-01
3.136000e-01
3.136000e-01
3.136000e-01
3.136000e-01
3.136000e-01
3.136000e-01
3.136000e-01
3.136000e-01
3.136000e-01
3.136000e-01
3.136000e-01
3.136000e-01
3.136000e-01
3.136000e-01
3.136000e-01
3.136000e-01
3.136000e-01
3.136000e-01
3.136000e-01
3.136000e-01
3.136000e-01
3.136000e-01
3.136000e-01
3.136000e-01
3.136000e-01
3.136000e-01
3.136000e-01
3.136000e-01
3.136000e-01
3.136000e-01
3.136000e-01
3.136000e-01
3.136000e-01
3.136000e-01
3.136000e-01
3.136000e-01
3.136000e-01
3.136000e-01
3.136000e-01
3.136000e-01
3.136000e-01
3.136000e-01
3.136000e-01
3.136000e-01
3.136000e-01
3.136000e-01
3.136000e-01
3.136000e-01
3.136000e-01
3.136000e-01
3.136000e-01
3.136000e-01
3.136000e-01
3.136000e-01
3.136000e-01
3.136000e-01
3.136000e-01
3.136000e-01
3.136000e-01
3.136000e-01
3.136000e-01
3.136000e-01
3.136000e-01
3.136000e-01
3.136000e-01
3.136000e-01
3.136000e-01
3.136000e-01
3.136000e-01
3.136000e-01
3.136000e-01
3.136000e-01
3.136000e-01
3.136000e-01
3.136000e-01
3.136000e-01
3.136000e-01
3.136000e-01
3.136000e-01
3.136000e-01
3.136000e-01
3.136000e-01
3.136000e-01
3.136000e-01
3.136000e-01
4.636000e-01
4.636000e-01
4.636000e-01
4.636000e-01
4.636000e-01
4.636000e-01
4.636000e-01
4.636000e-01
4.636000e-01
4.636000e-01
4.636000e-01
4.636000e-01
4.636000e-01
4.636000e-01
4.636000e-01
4.636000e-01
4.636000e-01
4.636000e-01
4.636000e-01
4.636000e-01
4.636000e-01
4.636000e-01
4.636000e-01
4.636000e-01
4.636000e-01
4.636000e-01
4.636000e-01
4.636000e-01
4.636000e-01
4.636000e-01
4.636000e-01
4.636000e-01
4.636000e-01
4.323807e-01
4.060292e-01
4.084684e-01
4.275332e-01
4.213046e-01
4.338732e-01
4.599812e-01
3.726317e-01
4.434085e-01
4.560924e-01
4.553837e-01
4.499936e-01
4.522057e-01
4.453170e-01
4.402394e-01
4.466307e-01
4.414990e-01
4.346752e-01
4.326353e-01
4.288021e-01
4.319456e-01
4.218422e-01
4.620731e-01
4.629735e-01
4.185283e-01
4.207551e-01
4.209228e-01
4.177527e-01
3.962100e-01
4.092937e-01
4.000589e-01
3.876310e-01
3.914272e-01
3.844847e-01
3.673585e-01
4.250754e-01
4.139606e-01
4.003208e-01
3.910985e-01
3.895259e-01
3.901641e-01
3.867658e-01
4.362244e-01
4.237450e-01
4.115903e-01
4.242958e-01
4.126572e-01
3.978196e-01
3.855450e-01
4.583439e-01
4.606777e-01
4.626040e-01
3.833690e-01
3.506305e-01
3.666878e-01
3.678136e-01
3.967187e-01
3.864957e-01
3.834936e-01
4.096072e-01
4.063731e-01
4.012173e-01
3.965235e-01
4.224765e-01
4.181807e-01
4.125929e-01
4.072862e-01
4.614287e-01
4.583440e-01
4.490397e-01
4.493760e-01
4.352372e-01
4.344011e-01
4.404563e-01
4.445165e-01
4.156286e-01
4.271255e-01
4.387684e-01
4.631141e-01
4.631305e-01
4.631668e-01
4.631373e-01
4.630810e-01
4.631312e-01
4.630816e-01
4.630528e-01
4.521039e-01
4.558666e-01
4.590483e-01
4.616342e-01
4.629482e-01
4.632342e-01
4.633428e-01
4.632051e-01
4.632731e-01
4.630009e-01
4.592629e-01
4.623274e-01
4.621071e-01
4.605751e-01
4.580257e-01
4.547810e-01
4.630001e-01
4.615986e-01
4.590929e-01
4.560062e-01
4.520415e-01
4.480551e-01
4.627156e-01
4.606143e-01
4.576753e-01
4.539771e-01
4.493505e-01
4.428183e-01
4.401993e-01
3.311533e-01
3.488181e-01
3.319654e-01
3.787365e-01
3.649637e-01
3.496067e-01
3.326697e-01
3.934505e-01
3.804562e-01
3.665271e-01
3.514207e-01
4.433122e-01
4.485160e-01
4.530228e-01
4.568437e-01
4.609342e-01
4.626831e-01
3.343304e-01
4.622665e-01
4.592547e-01
4.538974e-01
4.460711e-01
4.346216e-01
4.216927e-01
4.069701e-01
3.916359e-01
3.747247e-01
3.524317e-01
3.366221e-01
4.210066e-01
4.081289e-01
3.951885e-01
3.825158e-01
3.694057e-01
3.552003e-01
3.385122e-01
3.314022e-01
3.835872e-01
3.615002e-01
3.426422e-01
4.423077e-01
4.303396e-01
4.196718e-01
4.063160e-01
4.619799e-01
4.588789e-01
4.525395e-01
4.623176e-01
4.579472e-01
4.512619e-01
4.434497e-01
4.314901e-01
4.200081e-01
4.091336e-01
3.948966e-01
3.777701e-01
3.587080e-01
3.376696e-01
3.745200e-01
3.559482e-01
3.355409e-01
4.429164e-01
4.307998e-01
4.195211e-01
4.048224e-01
4.626058e-01
4.599843e-01
4.533510e-01
4.621019e-01
4.569726e-01
4.168482e-01
4.035735e-01
3.921394e-01
3.797349e-01
3.658674e-01
3.504429e-01
3.353039e-01
3.238554e-01
4.507947e-01
4.453386e-01
4.360073e-01
4.193309e-01
4.024079e-01
3.892116e-01
3.728937e-01
3.545172e-01
3.346416e-01
3.724899e-01
3.539532e-01
3.342745e-01
4.462940e-01
4.359716e-01
4.223214e-01
4.068241e-01
4.620754e-01
4.585083e-01
4.527802e-01
4.625041e-01
4.590114e-01
4.528771e-01
4.447939e-01
4.331908e-01
4.211289e-01
4.057849e-01
3.899373e-01
3.724026e-01
3.536812e-01
3.340769e-01
3.721178e-01
4.320030e-01
3.533310e-01
3.338520e-01
4.622103e-01
4.579938e-01
4.517411e-01
4.436794e-01
4.338403e-01
4.231825e-01
4.082514e-01
3.891932e-01
3.713189e-01
3.527352e-01
3.335082e-01
4.407064e-01
4.302498e-01
4.195462e-01
4.047806e-01
4.615182e-01
4.575829e-01
4.505132e-01
4.618966e-01
4.566506e-01
4.004326e-01
3.882740e-01
3.752499e-01
3.626987e-01
3.484621e-01
3.322941e-01
4.494386e-01
4.419804e-01
4.318417e-01
4.178059e-01
4.021295e-01
3.875016e-01
3.702222e-01
3.518820e-01
3.329890e-01
3.689350e-01
3.506215e-01
3.321390e-01
4.615789e-01
4.576768e-01
4.492032e-01
4.613820e-01
4.545770e-01
4.473588e-01
4.388473e-01
4.277763e-01
4.151247e-01
4.008187e-01
3.846678e-01
3.667373e-01
3.484057e-01
3.306142e-01
4.616809e-01
4.576099e-01
4.507367e-01
4.425931e-01
4.310059e-01
4.174684e-01
3.998398e-01
3.826904e-01
3.626977e-01
3.439392e-01
3.292300e-01
4.612927e-01
4.581480e-01
4.513339e-01
4.434158e-01
4.320652e-01
4.183977e-01
4.024284e-01
3.802608e-01
3.637698e-01
3.474967e-01
3.325967e-01
4.615964e-01
4.594402e-01
4.547531e-01
4.453948e-01
4.340227e-01
3.860419e-01
3.701234e-01
3.567758e-01
3.466937e-01
3.312048e-01
4.194609e-01
4.049870e-01
3.901160e-01
3.737405e-01
3.541675e-01
3.351427e-01
3.785422e-01
3.606610e-01
3.380440e-01
4.622744e-01
4.587306e-01
4.526384e-01
4.433760e-01
4.320946e-01
4.200776e-01
4.070794e-01
3.920965e-01
3.749481e-01
3.558871e-01
3.350127e-01
4.421875e-01
4.304676e-01
4.155230e-01
4.011628e-01
4.617412e-01
4.573916e-01
4.502717e-01
4.621297e-01
4.580177e-01
4.511374e-01
4.403183e-01
4.262984e-01
4.148206e-01
4.032439e-01
3.884117e-01
3.715543e-01
3.531897e-01
3.491046e-01
3.344932e-01
3.337711e-01
3.691901e-01
3.514771e-01
3.328918e-01
4.409167e-01
4.272639e-01
4.125595e-01
3.989730e-01
4.616640e-01
4.580069e-01
4.507275e-01
4.620028e-01
4.564934e-01
4.484539e-01
4.392133e-01
4.283841e-01
4.142460e-01
3.971517e-01
3.837686e-01
3.676137e-01
3.501077e-01
3.320834e-01
3.660529e-01
3.486760e-01
3.316510e-01
4.623038e-01
4.591662e-01
4.518501e-01
3.304741e-01
4.618367e-01
4.558423e-01
4.490227e-01
4.425262e-01
4.317560e-01
4.184568e-01
4.007345e-01
3.807965e-01
3.625408e-01
3.485476e-01
3.323740e-01
4.802959e-01
4.820476e-01
4.817109e-01
4.817775e-01
4.819337e-01
4.818386e-01
4.818551e-01
4.818775e-01
4.817578e-01
4.818537e-01
4.817729e-01
4.818537e-01
4.817520e-01
4.818277e-01
4.817965e-01
4.817054e-01
4.817886e-01
4.817540e-01
4.818594e-01
4.818743e-01
4.818380e-01
4.818081e-01
4.817773e-01
4.816534e-01
4.817637e-01
4.818418e-01
4.817165e-01
4.817178e-01
4.817188e-01
4.819191e-01
4.818326e-01
4.817912e-01
-4.625929e-18
3.798547e-01
3.671957e-01
3.503055e-01
3.302090e-01
3.110684e-01
2.905769e-01
2.632395e-01
2.324339e-01
2.001470e-01
1.681753e-01
1.376840e-01
1.125349e-01
8.788525e-02
6.054723e-02
3.794500e-02
1.734900e-02
3.894291e-01
3.553434e-01
3.711912e-01
3.414381e-01
2.062752e-02
5.333701e-02
8.681622e-02
1.208236e-01
1.539112e-01
1.857284e-01
2.163171e-01
2.442444e-01
2.707838e-01
2.952318e-01
3.143746e-01
3.299895e-01
-6.938894e-18
0.000000e+00
0.000000e+00
3.298978e-01
3.488642e-01
3.262551e-01
2.974384e-01
2.673176e-01
2.388789e-01
2.085032e-01
1.768814e-01
1.448594e-01
1.082489e-01
7.213496e-02
3.712485e-02
3.894291e-01
1.971764e-02
4.739215e-02
7.867319e-02
1.127376e-01
1.463076e-01
1.751246e-01
2.043911e-01
2.337389e-01
2.578902e-01
2.792449e-01
3.027459e-01
3.254518e-01
3.444539e-01
3.589758e-01
3.707727e-01
3.810431e-01
-4.625929e-18
0.000000e+00
0.000000e+00
1.156482e-17
3.270140e-01
3.074501e-01
2.833331e-01
2.545964e-01
2.220945e-01
1.932187e-01
1.654331e-01
1.339148e-01
1.048584e-01
7.579258e-02
4.598564e-02
1.900207e-02
3.414381e-01
3.715382e-01
3.552692e-01
2.742287e-02
6.172213e-02
9.307628e-02
1.243474e-01
1.549441e-01
1.844680e-01
2.136705e-01
2.477667e-01
2.793790e-01
3.042874e-01
3.262423e-01
3.488357e-01
-1.387779e-17
-1.387779e-17
-1.387779e-17
-1.387779e-17
-1.387779e-17
-1.387779e-17
-1.387779e-17
-1.387779e-17
-1.387779e-17
-1.387779e-17
-1.387779e-17
-1.387779e-17
-1.387779e-17
-1.387779e-17
-1.387779e-17
-1.387779e-17
-1.387779e-17
-1.387779e-17
-1.387779e-17
-1.387779e-17
-1.387779e-17
-1.387779e-17
-1.387779e-17
-1.387779e-17
-1.387779e-17
-1.387779e-17
-1.387779e-17
-1.387779e-17
-1.387779e-17
-1.387779e-17
-1.387779e-17
-1.387779e-17
-1.387779e-17
3.894291e-01
3.894291e-01
3.894291e-01
3.894291e-01
3.894291e-01
3.894291e-01
3.894291e-01
3.894291e-01
3.894291e-01
3.894291e-01
3.894291e-01
3.894291e-01
3.894291e-01
3.894291e-01
3.894291e-01
3.894291e-01
3.894291e-01
3.894291e-01
3.894291e-01
3.894291e-01
3.894291e-01
3.894291e-01
3.894291e-01
3.894291e-01
3.894291e-01
3.894291e-01
3.894291e-01
3.894291e-01
3.894291e-01
3.894291e-01
3.894291e-01
3.894291e-01
3.894291e-01
2.232983e-01
2.407387e-01
2.226037e-01
2.626568e-01
2.359215e-01
2.511978e-01
2.038543e-01
1.944645e-01
2.470562e-01
2.152711e-01
2.308484e-01
2.115694e-01
2.336309e-01
2.068343e-01
3.741279e-01
2.541721e-01
2.284648e-01
2.023126e-01
2.616639e-01
2.471470e-01
2.329470e-01
2.009431e-01
1.489870e-01
2.372946e-01
2.508785e-01
2.241195e-01
2.006163e-01
1.783699e-01
1.321331e-01
1.280633e-01
1.439914e-01
1.225016e-01
1.029117e-01
9.222504e-02
3.670920e-01
3.603987e-01
3.710982e-01
3.789274e-01
3.564363e-01
3.513944e-01
3.416234e-01
3.387107e-01
3.304416e-01
3.229134e-01
3.297007e-01
3.145677e-01
3.152038e-01
3.083936e-01
3.016632e-01
2.987594e-01
2.938856e-01
2.913605e-01
2.854558e-01
2.783721e-01
2.842575e-01
2.762295e-01
2.677003e-01
2.704789e-01
2.605155e-01
2.532909e-01
1.679857e-01
1.692020e-01
3.435027e-01
3.553133e-01
3.658987e-01
3.765026e-01
1.817894e-01
1.938336e-01
2.099205e-01
2.279890e-01
1.887979e-01
2.025130e-01
1.557063e-01
1.590339e-01
1.660472e-01
1.755067e-01
3.578192e-01
3.417186e-01
3.356203e-01
3.194120e-01
3.151708e-01
3.214836e-01
2.891196e-01
2.896451e-01
2.986383e-01
3.057350e-01
2.572678e-01
2.308060e-01
2.623885e-01
2.767008e-01
2.768058e-01
2.897179e-01
5.226075e-02
7.585925e-02
7.680574e-02
1.021040e-01
1.011401e-01
1.245638e-01
1.283993e-01
1.276016e-01
1.519333e-01
3.243979e-01
3.377434e-01
3.498576e-01
3.610924e-01
3.711817e-01
1.470213e-01
1.542910e-01
1.547457e-01
2.000773e-01
1.759417e-01
1.833162e-01
1.795630e-01
1.753440e-01
1.687141e-01
2.743766e-01
2.444448e-01
2.162843e-01
1.873465e-01
2.005113e-01
2.538319e-01
2.253322e-01
3.788790e-01
3.773408e-01
3.667950e-01
3.784070e-01
3.759259e-01
3.633656e-01
3.524801e-01
3.671737e-01
3.588135e-01
3.469980e-01
3.352574e-01
3.768717e-01
3.652999e-01
3.534601e-01
3.417357e-01
3.281766e-01
3.143576e-01
3.795408e-01
3.727657e-01
3.620891e-01
3.500635e-01
3.370491e-01
3.228615e-01
3.062993e-01
2.889786e-01
2.689435e-01
3.773504e-01
3.669703e-01
3.567292e-01
3.460471e-01
3.331562e-01
3.185331e-01
3.027161e-01
2.803522e-01
2.634403e-01
2.512947e-01
3.037190e-01
3.182595e-01
3.315743e-01
3.438362e-01
3.556253e-01
3.677912e-01
3.765757e-01
3.210174e-02
1.956628e-02
6.007799e-02
4.274083e-02
2.302457e-02
8.861978e-02
6.900635e-02
4.863882e-02
2.573128e-02
1.351970e-01
1.153432e-01
9.614010e-02
7.605108e-02
5.386882e-02
2.878147e-02
1.874672e-01
1.617704e-01
1.410107e-01
1.234620e-01
1.045532e-01
8.359625e-02
6.021584e-02
3.322166e-02
1.335400e-01
1.068263e-01
7.015624e-02
4.209651e-02
2.106498e-01
3.070887e-02
1.840439e-01
1.631632e-01
1.509272e-01
1.340271e-01
1.142822e-01
9.293764e-02
6.966875e-02
4.214252e-02
3.787838e-01
3.672500e-01
3.530910e-01
3.365844e-01
3.174265e-01
2.959573e-01
2.725032e-01
2.475553e-01
2.214316e-01
1.933015e-01
1.601334e-01
1.302268e-01
9.983910e-02
6.806530e-02
3.546999e-02
3.780976e-01
2.799993e-01
2.973034e-01
3.117120e-01
3.241301e-01
3.368944e-01
3.494693e-01
3.606398e-01
3.705226e-01
3.653199e-01
3.503149e-01
3.329796e-01
3.132622e-01
2.914219e-01
2.677194e-01
2.424254e-01
2.155753e-01
1.869210e-01
1.569072e-01
1.267984e-01
9.618910e-02
6.488392e-02
3.277444e-02
3.773589e-01
3.638237e-01
3.481890e-01
3.302809e-01
3.101051e-01
2.879199e-01
2.639394e-01
2.383769e-01
2.113635e-01
1.830683e-01
1.538627e-01
1.240626e-01
9.370966e-02
6.283512e-02
3.150461e-02
3.768035e-01
3.627390e-01
3.466336e-01
3.283017e-01
3.077808e-01
2.853209e-01
2.611395e-01
2.354571e-01
2.084871e-01
1.804492e-01
1.515909e-01
1.220818e-01
9.204233e-02
6.157659e-02
3.082732e-02
3.764129e-01
3.619795e-01
3.455372e-01
3.269053e-01
3.061351e-01
2.834870e-01
2.591789e-01
2.334587e-01
2.065502e-01
1.786752e-01
1.500184e-01
1.207360e-01
9.095220e-02
6.080192e-02
3.042774e-02
3.761483e-01
3.614639e-01
3.447939e-01
3.259552e-01
3.050208e-01
2.822460e-01
2.578688e-01
2.321330e-01
2.052782e-01
1.775008e-01
1.489798e-01
1.198526e-01
2.148144e-01
1.946471e-01
1.760146e-01
1.589360e-01
1.398040e-01
1.192296e-01
9.789204e-02
7.533856e-02
5.196935e-02
3.013678e-02
1.420340e-02
9.025630e-02
6.031882e-02
3.018574e-02
3.759704e-01
3.611215e-01
3.443003e-01
3.253291e-01
3.042826e-01
2.814314e-01
2.570069e-01
2.312708e-01
2.044455e-01
1.767356e-01
1.482977e-01
1.192793e-01
8.980411e-02
6.000742e-02
3.002357e-02
3.758468e-01
3.608900e-01
3.439723e-01
3.249073e-01
3.037866e-01
2.808751e-01
2.564233e-01
2.306782e-01
2.038769e-01
1.762030e-01
1.478253e-01
1.188751e-01
8.948627e-02
2.496763e-01
2.749458e-01
2.922062e-01
3.018805e-01
3.151878e-01
3.291680e-01
3.424207e-01
3.538913e-01
3.653443e-01
3.756685e-01
5.978113e-02
2.989827e-02
3.757578e-01
3.607321e-01
3.437312e-01
3.245896e-01
3.033976e-01
2.804383e-01
2.559511e-01
2.302007e-01
2.034040e-01
1.757597e-01
1.474188e-01
1.185265e-01
8.920447e-02
5.958354e-02
2.979485e-02
3.757386e-01
3.606002e-01
3.435006e-01
3.242667e-01
3.029993e-01
2.799738e-01
2.554508e-01
2.296771e-01
2.028852e-01
1.752540e-01
1.469518e-01
1.181112e-01
8.886794e-02
5.934463e-02
2.967575e-02
3.755868e-01
3.603692e-01
3.431817e-01
3.238397e-01
3.024584e-01
2.793489e-01
2.547639e-01
2.289640e-01
2.021588e-01
1.745445e-01
1.462765e-01
1.175074e-01
8.836470e-02
5.898335e-02
2.949040e-02
3.754190e-01
3.600977e-01
3.427347e-01
3.231920e-01
3.016395e-01
2.784021e-01
2.537421e-01
2.278911e-01
2.010690e-01
1.734592e-01
1.452423e-01
1.165655e-01
8.757253e-02
5.839419e-02
2.917151e-02
3.754124e-01
3.597494e-01
3.420119e-01
3.221478e-01
3.003601e-01
2.769754e-01
2.522136e-01
2.262958e-01
1.994285e-01
1.718242e-01
1.436684e-01
1.658247e-01
1.485933e-01
1.307652e-01
1.117693e-01
9.209583e-02
7.237100e-02
4.995123e-02
2.620192e-02
1.151305e-01
8.634681e-02
5.746299e-02
2.864497e-02
3.750144e-01
3.589028e-01
3.407098e-01
3.204635e-01
2.984431e-01
2.749157e-01
2.500308e-01
2.239914e-01
1.970496e-01
1.694389e-01
1.413787e-01
1.130286e-01
8.453826e-02
5.606137e-02
2.785281e-02
3.742134e-01
3.573474e-01
3.385395e-01
3.179250e-01
2.957944e-01
2.721595e-01
2.470446e-01
2.207776e-01
1.937135e-01
1.661239e-01
1.382131e-01
1.100810e-01
8.195263e-02
1.830775e-01
5.404679e-02
2.679822e-02
3.729541e-01
3.545594e-01
3.350463e-01
3.144834e-01
2.926476e-01
2.687246e-01
2.430450e-01
2.163480e-01
1.891890e-01
1.617847e-01
1.341593e-01
1.059823e-01
7.816992e-02
5.133275e-02
2.588475e-02
3.714986e-01
3.569600e-01
3.348594e-01
3.092026e-01
3.704994e-01
3.483341e-01
3.296832e-01
3.116195e-01
2.895752e-01
2.644434e-01
2.375531e-01
2.101309e-01
1.832219e-01
1.568091e-01
1.298294e-01
9.944037e-02
7.136347e-02
5.004585e-02
2.649434e-02
2.218682e-02
2.743622e-02
4.632223e-02
2.177827e-02
1.531716e-01
1.375080e-01
1.206741e-01
1.027738e-01
8.405658e-02
6.540115e-02
4.956229e-02
2.454318e-02
3.667479e-02
5.520143e-02
7.200089e-02
2.730929e-02
4.725341e-02
6.504348e-02
8.244003e-02
9.850207e-02
3.646985e-02
5.600187e-02
7.487314e-02
9.283947e-02
1.097813e-01
1.251148e-01
3.414381e-01
3.414381e-01
3.414381e-01
3.414381e-01
3.414381e-01
3.414381e-01
3.414381e-01
3.414381e-01
3.414381e-01
3.414381e-01
3.414381e-01
3.414381e-01
3.414381e-01
3.414381e-01
3.414381e-01
3.414381e-01
3.414381e-01
3.414381e-01
3.414381e-01
3.414381e-01
3.414381e-01
3.414381e-01
3.414381e-01
3.414381e-01
3.414381e-01
3.414381e-01
3.414381e-01
3.414381e-01
3.414381e-01
3.414381e-01
3.414381e-01
3.414381e-01
3.414381e-01
3.575592e-01
3.734703e-01
3.656663e-01
3.574792e-01
3.734051e-01
3.575413e-01
3.734588e-01
3.575469e-01
3.734695e-01
3.576890e-01
3.738196e-01
3.657366e-01
3.646228e-01
3.577023e-01
3.735169e-01
3.576026e-01
3.734467e-01
3.574651e-01
3.731339e-01
3.698385e-01
3.566619e-01
3.731200e-01
3.576907e-01
3.734423e-01
3.578915e-01
3.725459e-01
3.572411e-01
3.749600e-01
3.567792e-01
3.730826e-01
3.575708e-01
3.733450e-01
3.574498e-01
3.732807e-01
3.575266e-01
3.734469e-01
3.575456e-01
3.734643e-01
3.575488e-01
3.734800e-01
3.575613e-01
3.735236e-01
3.588887e-01
3.757909e-01
3.563629e-01
3.728339e-01
3.585869e-01
3.753463e-01
3.574845e-01
3.739273e-01
3.558645e-01
3.729097e-01
3.735254e-01
3.576482e-01
3.581360e-01
3.738943e-01
3.577545e-01
3.735174e-01
3.576245e-01
3.734712e-01
3.469447e-17
-2.081668e-17
3.469447e-17
-2.081668e-17
3.469447e-17
-2.081668e-17
3.469447e-17
-2.081668e-17
3.469447e-17
-2.081668e-17
3.469447e-17
-2.081668e-17
3.469447e-17
-2.081668e-17
3.469447e-17
-2.081668e-17
3.469447e-17
-2.081668e-17
3.469447e-17
-2.081668e-17
3.469447e-17
-2.081668e-17
3.469447e-17
-2.081668e-17
3.469447e-17
-2.081668e-17
3.469447e-17
-2.081668e-17
3.469447e-17
-2.081668e-17
3.469447e-17
-2.081668e-17
3.469447e-17
1.672479e-01
2.237527e-01
2.192681e-01
1.792771e-01
1.934617e-01
1.633370e-01
5.781233e-02
2.758089e-01
1.353288e-01
8.309427e-02
8.689430e-02
1.114933e-01
1.021517e-01
1.289099e-01
1.453072e-01
1.242817e-01
1.414340e-01
1.611907e-01
1.665882e-01
1.762206e-01
1.683684e-01
1.922866e-01
3.759483e-02
2.409314e-02
1.993967e-01
1.946538e-01
1.942909e-01
2.010165e-01
2.407127e-01
2.177238e-01
2.342601e-01
2.542974e-01
2.484144e-01
2.590299e-01
2.827945e-01
1.850294e-01
2.087142e-01
2.338124e-01
2.489315e-01
2.513853e-01
2.503936e-01
2.556114e-01
1.569499e-01
1.880562e-01
2.133504e-01
1.868102e-01
2.112794e-01
2.380430e-01
2.574491e-01
6.961196e-02
5.197096e-02
3.037222e-02
2.606782e-01
3.032873e-01
2.836636e-01
2.822023e-01
2.398734e-01
2.560196e-01
2.604949e-01
2.171334e-01
2.231274e-01
2.322706e-01
2.401958e-01
1.908889e-01
2.001246e-01
2.114049e-01
2.214563e-01
4.481637e-02
6.961126e-02
1.152751e-01
1.139569e-01
1.596670e-01
1.619280e-01
1.446487e-01
1.316438e-01
2.053724e-01
1.802464e-01
1.496905e-01
2.122046e-02
2.085864e-02
2.003584e-02
2.070657e-02
2.193146e-02
2.084371e-02
2.191879e-02
2.251842e-02
1.026014e-01
8.432427e-02
6.480413e-02
4.264780e-02
2.457495e-02
1.841286e-02
1.543950e-02
1.913120e-02
1.740569e-02
2.356186e-02
6.326564e-02
3.432646e-02
3.717555e-02
5.287276e-02
7.167558e-02
8.999559e-02
2.357735e-02
4.303128e-02
6.448754e-02
8.356630e-02
1.028760e-01
1.190445e-01
2.862175e-02
5.253027e-02
7.388044e-02
9.396677e-02
1.140572e-01
1.372477e-01
1.454289e-01
3.244417e-01
3.053701e-01
3.236108e-01
2.673643e-01
2.858784e-01
3.044669e-01
3.228867e-01
2.451972e-01
2.649113e-01
2.838712e-01
3.023714e-01
1.356438e-01
1.172960e-01
9.846482e-02
7.885913e-02
4.964520e-02
2.914300e-02
3.211669e-01
3.513770e-02
6.332529e-02
9.435097e-02
1.262755e-01
1.613351e-01
1.926142e-01
2.220367e-01
2.480852e-01
2.729585e-01
3.011924e-01
3.187641e-01
1.941092e-01
2.198995e-01
2.423861e-01
2.619286e-01
2.801150e-01
2.979224e-01
3.167562e-01
3.241875e-01
2.603572e-01
2.902456e-01
3.122840e-01
1.388845e-01
1.724321e-01
1.969786e-01
2.232313e-01
3.872386e-02
6.599360e-02
1.006624e-01
3.445901e-02
7.217584e-02
1.062434e-01
1.351938e-01
1.695325e-01
1.962605e-01
2.180244e-01
2.428613e-01
2.687279e-01
2.936895e-01
3.176542e-01
2.732393e-01
2.970283e-01
3.199020e-01
1.369307e-01
1.712791e-01
1.972994e-01
2.259287e-01
3.034510e-02
5.778734e-02
9.694255e-02
3.723998e-02
7.810881e-02
2.028856e-01
2.281521e-01
2.472887e-01
2.659443e-01
2.847209e-01
3.035040e-01
3.201504e-01
3.317268e-01
1.082087e-01
1.288350e-01
1.575518e-01
1.977032e-01
2.302017e-01
2.518716e-01
2.754546e-01
2.987349e-01
3.208425e-01
2.760004e-01
2.994029e-01
3.212251e-01
1.254854e-01
1.576506e-01
1.912318e-01
2.223041e-01
3.756671e-02
6.852077e-02
9.957441e-02
3.185763e-02
6.506550e-02
9.913273e-02
1.307033e-01
1.651385e-01
1.938437e-01
2.241954e-01
2.507465e-01
2.761182e-01
2.997242e-01
3.214305e-01
2.765019e-01
1.682212e-01
3.001369e-01
3.216641e-01
3.586924e-02
7.187906e-02
1.041870e-01
1.344378e-01
1.634245e-01
1.893186e-01
2.196720e-01
2.519000e-01
2.775738e-01
3.008369e-01
3.220206e-01
1.438848e-01
1.726559e-01
1.972460e-01
2.260036e-01
4.388506e-02