VARIABLES = "X" "Y" "Z" "FREF"
ZONE T="instant 071"
Nodes=3151, Elements=6298
ZONETYPE=FETriangle
DATAPACKING=BLOCK
VARLOCATION = ([1-3]=NODAL, [4]=CELLCENTERED)
5.000000e-01
2.262964e-01
2.475143e-01
2.646715e-01
2.793851e-01
2.963159e-01
3.137372e-01
3.314602e-01
3.499933e-01
3.689661e-01
3.869552e-01
4.028330e-01
4.172976e-01
4.306234e-01
4.427390e-01
4.533469e-01
4.622720e-01
4.690397e-01
4.752068e-01
4.816267e-01
4.872330e-01
4.916945e-01
4.949926e-01
4.974152e-01
4.989887e-01
4.998107e-01
2.096000e-01
2.096000e-01
2.096000e-01
2.096000e-01
2.096000e-01
2.096000e-01
2.096000e-01
2.096000e-01
2.096000e-01
2.096000e-01
2.096000e-01
2.096000e-01
3.589884e-01
3.576493e-01
3.542716e-01
3.487667e-01
3.419136e-01
3.371103e-01
3.309569e-01
3.229118e-01
3.151759e-01
3.077010e-01
2.994752e-01
2.897276e-01
2.817354e-01
2.740879e-01
2.667419e-01
2.572903e-01
2.478128e-01
2.408713e-01
2.318641e-01
2.211847e-01
3.596000e-01
4.874824e-01
4.736997e-01
4.610199e-01
4.483113e-01
4.345446e-01
4.203942e-01
4.070432e-01
3.941254e-01
3.813193e-01
3.697790e-01
3.925108e-01
2.539819e-01
2.424834e-01
4.041553e-01
3.853671e-01
2.595934e-01
2.697431e-01
2.504674e-01
2.719958e-01
2.299022e-01
2.729993e-01
2.592148e-01
2.776409e-01
2.890750e-01
4.885057e-01
3.026403e-01
3.176363e-01
2.956688e-01
3.056985e-01
3.484085e-01
3.590172e-01
3.917128e-01
3.735859e-01
3.740273e-01
4.003705e-01
4.094680e-01
3.912196e-01
4.832692e-01
4.754317e-01
4.015801e-01
4.153407e-01
4.090293e-01
4.253809e-01
4.194283e-01
4.289209e-01
3.689561e-01
3.890804e-01
3.789182e-01
3.625300e-01
2.512275e-01
2.367091e-01
2.241423e-01
2.279981e-01
2.276904e-01
2.451411e-01
2.619319e-01
2.285003e-01
2.457144e-01
2.627111e-01
2.797064e-01
2.197581e-01
2.313802e-01
2.469513e-01
2.639801e-01
4.859665e-01
2.808916e-01
2.971898e-01
2.986011e-01
3.146727e-01
3.014299e-01
3.150962e-01
3.315570e-01
2.266161e-01
2.458552e-01
2.645113e-01
2.841361e-01
2.768113e-01
2.769480e-01
2.864121e-01
2.952995e-01
3.140063e-01
3.283349e-01
3.378796e-01
3.494136e-01
2.271198e-01
2.443818e-01
2.628570e-01
2.839306e-01
2.991197e-01
3.123160e-01
3.277440e-01
3.149673e-01
3.259175e-01
3.305047e-01
3.427762e-01
3.556616e-01
3.705081e-01
2.914603e-01
3.046352e-01
3.182807e-01
3.426688e-01
4.815998e-01
4.731046e-01
4.676825e-01
4.602874e-01
3.570350e-01
3.713991e-01
3.866983e-01
2.972598e-01
3.308563e-01
3.441680e-01
3.580959e-01
3.715308e-01
3.859426e-01
4.012571e-01
3.109172e-01
3.245828e-01
3.389398e-01
3.460102e-01
3.599744e-01
3.750366e-01
4.769251e-01
4.674330e-01
4.597441e-01
4.525346e-01
4.456063e-01
3.846720e-01
3.987873e-01
4.143029e-01
3.573075e-01
3.738811e-01
3.935376e-01
4.098581e-01
4.261877e-01
3.156884e-01
3.293281e-01
3.432222e-01
3.584030e-01
3.897741e-01
4.058489e-01
4.215613e-01
4.373987e-01
3.730803e-01
3.881997e-01
4.026586e-01
4.178253e-01
4.324514e-01
4.475999e-01
4.372103e-01
4.470498e-01
3.316752e-01
3.452808e-01
3.591107e-01
3.739032e-01
3.880900e-01
4.019751e-01
4.141669e-01
4.293365e-01
4.422883e-01
4.569813e-01
4.118700e-01
4.183073e-01
4.711666e-01
4.614678e-01
4.534869e-01
4.450637e-01
4.389274e-01
4.317053e-01
4.237853e-01
4.233441e-01
4.313662e-01
4.385324e-01
4.459226e-01
4.544619e-01
4.644584e-01
2.096000e-01
4.997341e-01
4.981110e-01
4.954024e-01
4.918215e-01
4.860166e-01
4.792518e-01
4.704823e-01
4.594469e-01
4.459025e-01
4.318787e-01
4.190056e-01
4.050734e-01
3.905261e-01
3.749844e-01
3.613150e-01
3.497905e-01
3.381417e-01
3.249228e-01
3.106804e-01
2.961459e-01
2.814765e-01
2.665275e-01
2.515208e-01
2.364559e-01
2.220869e-01
5.000000e-01
3.696528e-01
3.813746e-01
3.937736e-01
4.075310e-01
4.206471e-01
4.335395e-01
4.473909e-01
4.622257e-01
4.761402e-01
4.890062e-01
3.596000e-01
2.196536e-01
2.295573e-01
2.417898e-01
2.567529e-01
2.679789e-01
2.785100e-01
2.887529e-01
2.985058e-01
3.066701e-01
3.126068e-01
3.203398e-01
3.273641e-01
3.328474e-01
3.371882e-01
3.412585e-01
3.468537e-01
3.509835e-01
3.533204e-01
3.555068e-01
3.576172e-01
3.591461e-01
2.096000e-01
2.096000e-01
2.096000e-01
2.096000e-01
2.096000e-01
2.096000e-01
2.096000e-01
2.096000e-01
2.096000e-01
2.096000e-01
2.096000e-01
3.944627e-01
4.182637e-01
2.439514e-01
2.736647e-01
2.639251e-01
3.677989e-01
3.726497e-01
3.847138e-01
3.835226e-01
3.991636e-01
3.994479e-01
4.060403e-01
3.900907e-01
4.355875e-01
2.240012e-01
4.249395e-01
4.086637e-01
4.270523e-01
3.975972e-01
4.189374e-01
4.089584e-01
4.322856e-01
4.222971e-01
2.268018e-01
2.767092e-01
2.464846e-01
2.395814e-01
2.280471e-01
2.700533e-01
2.941018e-01
2.589335e-01
2.928901e-01
2.772942e-01
3.007579e-01
2.879668e-01
3.104559e-01
3.211374e-01
2.343191e-01
3.704366e-01
2.254342e-01
2.362526e-01
2.539308e-01
3.627969e-01
3.748781e-01
3.840438e-01
4.857185e-01
4.712759e-01
4.793013e-01
4.826541e-01
4.504777e-01
4.575162e-01
4.633727e-01
4.686078e-01
2.541847e-01
2.424977e-01
2.260578e-01
4.760860e-01
4.482239e-01
4.536040e-01
4.592600e-01
4.710491e-01
4.394365e-01
4.423314e-01
4.578814e-01
4.641775e-01
3.619248e-01
3.677277e-01
3.764658e-01
4.253274e-01
4.368028e-01
4.512464e-01
4.134455e-01
4.276983e-01
4.327056e-01
4.392878e-01
4.431156e-01
4.455115e-01
4.491525e-01
3.499304e-01
3.826804e-01
3.954933e-01
4.111872e-01
4.197564e-01
4.298290e-01
4.388786e-01
3.539629e-01
3.581326e-01
3.664377e-01
4.012970e-01
4.116204e-01
2.691671e-01
2.579915e-01
4.192274e-01
4.263950e-01
3.370639e-01
3.720759e-01
3.807088e-01
3.943683e-01
4.014468e-01
4.074606e-01
4.135214e-01
3.417860e-01
3.447866e-01
3.521835e-01
3.821501e-01
3.898954e-01
3.949099e-01
4.002670e-01
3.551794e-01
2.830638e-01
2.702494e-01
2.561059e-01
2.409263e-01
2.244360e-01
3.607153e-01
3.727662e-01
3.775242e-01
3.814966e-01
3.863306e-01
3.202538e-01
3.253122e-01
3.276814e-01
3.352351e-01
3.589370e-01
3.634858e-01
3.677123e-01
3.721037e-01
3.366225e-01
3.408551e-01
3.438501e-01
3.499557e-01
3.545798e-01
3.575023e-01
2.268835e-01
2.442185e-01
2.652007e-01
2.809167e-01
2.954264e-01
3.105894e-01
3.253183e-01
2.993298e-01
3.025539e-01
3.139594e-01
3.176569e-01
3.177988e-01
3.243903e-01
3.304855e-01
3.392390e-01
3.396860e-01
3.412462e-01
2.972910e-01
2.842905e-01
2.713108e-01
2.577439e-01
2.422884e-01
2.261036e-01
3.002326e-01
3.123492e-01
3.255414e-01
2.754645e-01
2.865523e-01
2.985846e-01
3.115769e-01
5.000000e-01
5.000000e-01
5.000000e-01
5.000000e-01
5.000000e-01
5.000000e-01
5.000000e-01
5.000000e-01
5.000000e-01
5.000000e-01
5.000000e-01
5.000000e-01
5.000000e-01
5.000000e-01
5.000000e-01
5.000000e-01
5.000000e-01
5.000000e-01
5.000000e-01
5.000000e-01
5.000000e-01
5.000000e-01
5.000000e-01
5.000000e-01
5.000000e-01
5.000000e-01
5.000000e-01
5.000000e-01
5.000000e-01
5.000000e-01
5.000000e-01
5.000000e-01
5.000000e-01
2.096000e-01
2.096000e-01
2.096000e-01
2.096000e-01
2.096000e-01
2.096000e-01
2.096000e-01
2.096000e-01
2.096000e-01
2.096000e-01
2.096000e-01
2.096000e-01
2.096000e-01
2.096000e-01
2.096000e-01
2.096000e-01
2.096000e-01
2.096000e-01
2.096000e-01
2.096000e-01
2.096000e-01
2.096000e-01
2.096000e-01
2.096000e-01
2.096000e-01
2.096000e-01
2.096000e-01
2.096000e-01
2.096000e-01
2.096000e-01
2.096000e-01
2.096000e-01
2.096000e-01
3.829430e-01
3.920564e-01
3.883480e-01
3.971775e-01
4.065008e-01
4.281991e-01
4.129383e-01
4.196249e-01
3.517714e-01
3.600196e-01
3.667304e-01
3.678737e-01
3.743950e-01
3.795174e-01
3.843916e-01
4.051535e-01
3.904126e-01
3.828143e-01
3.969700e-01
4.110256e-01
3.755942e-01
3.755399e-01
2.336308e-01
2.240944e-01
3.880118e-01
4.021126e-01
4.162495e-01
4.011848e-01
4.102985e-01
4.196718e-01
4.139192e-01
4.224245e-01
4.259060e-01
4.435588e-01
4.160533e-01
4.265050e-01
4.114862e-01
4.316638e-01
4.188088e-01
4.051914e-01
4.363180e-01
4.241971e-01
4.125475e-01
4.006205e-01
4.358514e-01
4.450537e-01
4.418432e-01
4.328854e-01
4.252337e-01
2.524360e-01
2.407274e-01
2.273763e-01
3.965680e-01
4.052692e-01
4.126464e-01
3.902090e-01
3.987447e-01
3.838859e-01
2.236325e-01
2.342784e-01
2.366683e-01
2.471929e-01
2.501171e-01
2.584376e-01
2.610587e-01
2.640450e-01
2.649127e-01
2.712781e-01
2.750024e-01
2.782862e-01
2.793934e-01
2.850661e-01
2.891702e-01
2.927181e-01
2.880594e-01
2.941645e-01
2.993442e-01
3.035310e-01
3.072445e-01
2.979997e-01
3.035042e-01
3.090143e-01
3.138688e-01
3.179849e-01
3.217576e-01
3.074018e-01
2.697526e-01
2.584251e-01
2.463174e-01
2.337132e-01
2.248542e-01
3.131841e-01
3.186868e-01
3.238731e-01
3.284969e-01
3.323963e-01
3.361251e-01
3.221548e-01
3.283317e-01
3.337161e-01
3.386870e-01
3.431697e-01
3.465698e-01
3.501861e-01
3.303148e-01
3.373255e-01
3.435932e-01
3.485367e-01
3.534016e-01
3.580016e-01
3.601105e-01
3.637991e-01
3.383162e-01
3.455302e-01
3.526079e-01
3.591153e-01
3.628057e-01
3.680113e-01
3.737461e-01
3.719504e-01
3.773997e-01
3.890136e-01
4.231968e-01
3.713393e-01
3.841014e-01
3.979870e-01
2.866830e-01
2.760068e-01
2.646119e-01
2.530238e-01
2.423530e-01
2.320057e-01
4.118844e-01
3.623676e-01
3.763777e-01
3.910354e-01
4.053739e-01
4.180845e-01
4.297755e-01
3.907428e-01
3.987469e-01
4.039312e-01
4.089712e-01
4.133807e-01
4.190322e-01
4.248325e-01
4.304735e-01
4.308325e-01
4.337450e-01
4.370220e-01
4.390300e-01
4.413727e-01
4.442656e-01
4.192332e-01
4.262853e-01
4.323410e-01
4.381473e-01
4.437513e-01
4.483079e-01
4.512058e-01
4.301499e-01
4.331474e-01
4.386619e-01
4.454145e-01
4.505144e-01
4.543346e-01
4.576482e-01
4.416325e-01
4.524220e-01
4.509171e-01
4.587810e-01
4.606350e-01
4.636583e-01
4.669877e-01
4.694382e-01
4.513451e-01
4.632091e-01
4.702393e-01
4.746144e-01
4.606322e-01
4.708173e-01
4.753326e-01
4.790977e-01
4.761754e-01
4.837166e-01
3.039269e-01
2.934369e-01
2.824299e-01
2.711931e-01
2.600872e-01
2.488504e-01
2.357922e-01
2.257666e-01
4.813349e-01
4.880763e-01
4.834849e-01
4.889677e-01
4.946956e-01
4.984134e-01
4.964551e-01
4.939304e-01
4.935658e-01
4.909512e-01
4.896222e-01
4.901808e-01
4.847172e-01
4.853954e-01
4.862942e-01
4.874052e-01
4.789097e-01
4.795717e-01
4.805927e-01
4.818660e-01
4.833149e-01
4.726800e-01
4.738200e-01
4.752644e-01
4.769430e-01
4.787483e-01
4.716278e-01
4.737871e-01
4.646318e-01
4.659547e-01
4.675637e-01
4.694921e-01
4.555266e-01
4.569962e-01
4.587243e-01
4.608974e-01
4.634412e-01
4.660581e-01
4.684501e-01
4.456534e-01
4.470288e-01
4.487240e-01
4.510584e-01
4.540836e-01
4.573867e-01
4.602859e-01
4.624412e-01
4.248134e-01
4.258256e-01
4.362334e-01
4.376213e-01
4.397872e-01
4.434794e-01
4.474020e-01
4.519701e-01
4.529454e-01
4.562087e-01
4.271621e-01
4.370839e-01
4.204685e-01
2.569269e-01
2.801486e-01
2.672338e-01
2.851394e-01
2.788825e-01
3.018958e-01
2.976296e-01
2.911639e-01
3.234408e-01
3.157635e-01
3.213767e-01
3.108052e-01
2.999444e-01
2.889061e-01
2.777930e-01
2.665219e-01
2.547907e-01
2.435237e-01
2.324946e-01
3.095991e-01
3.032147e-01
3.423842e-01
3.346239e-01
3.276552e-01
3.212259e-01
3.149430e-01
3.528808e-01
3.455325e-01
3.388419e-01
3.325148e-01
3.263450e-01
3.704026e-01
3.628830e-01
3.560054e-01
3.496291e-01
3.435049e-01
3.374309e-01
3.868320e-01
3.795358e-01
3.725441e-01
3.661638e-01
3.601537e-01
3.542354e-01
3.481809e-01
4.016971e-01
3.955326e-01
3.883048e-01
3.819776e-01
3.761280e-01
3.705255e-01
3.646786e-01
3.585054e-01
4.139405e-01
4.117956e-01
4.030649e-01
3.970051e-01
3.912080e-01
3.861294e-01
3.807636e-01
3.746034e-01
3.683238e-01
4.513024e-01
4.428856e-01
4.323068e-01
4.203375e-01
4.070454e-01
3.927082e-01
3.776402e-01
4.404935e-01
4.289528e-01
4.159670e-01
4.010949e-01
3.863999e-01
2.243014e-01
2.229190e-01
2.256501e-01
2.397497e-01
2.354349e-01
2.437934e-01
2.552702e-01
2.238872e-01
2.369431e-01
2.488654e-01
2.593016e-01
2.704615e-01
2.248417e-01
2.385343e-01
2.512680e-01
2.631218e-01
2.742798e-01
2.854369e-01
3.389739e-01
3.280663e-01
3.171909e-01
3.062991e-01
2.953167e-01
2.841712e-01
2.727761e-01
2.612788e-01
2.494932e-01
2.362498e-01
2.250737e-01
2.212034e-01
2.286210e-01
2.407726e-01
2.534564e-01
2.658034e-01
2.776478e-01
2.890965e-01
3.002984e-01
2.203484e-01
2.238701e-01
2.349837e-01
2.446904e-01
2.561874e-01
2.683057e-01
2.803863e-01
2.922177e-01
3.038176e-01
3.151670e-01
2.277702e-01
2.387046e-01
2.493616e-01
2.597338e-01
2.711009e-01
2.829719e-01
2.948956e-01
3.066961e-01
3.183892e-01
3.302729e-01
3.431781e-01
2.218420e-01
2.327461e-01
2.426713e-01
2.533903e-01
2.638127e-01
2.741905e-01
2.856410e-01
2.974228e-01
3.092459e-01
3.209671e-01
3.325484e-01
3.441840e-01
3.546240e-01
2.228164e-01
2.350049e-01
2.455596e-01
2.570476e-01
2.680470e-01
2.781687e-01
2.880319e-01
2.999589e-01
3.116139e-01
3.233986e-01
3.350029e-01
3.463836e-01
3.581286e-01
3.670861e-01
2.169461e-01
2.246678e-01
2.360837e-01
2.489159e-01
2.580323e-01
2.719605e-01
2.828508e-01
2.925107e-01
3.007749e-01
3.145854e-01
3.254222e-01
3.374126e-01
3.487935e-01
3.596494e-01
3.731697e-01
3.794891e-01
3.565755e-01
3.450820e-01
3.340734e-01
3.233441e-01
3.125757e-01
3.016301e-01
2.904415e-01
2.790041e-01
2.672188e-01
2.548202e-01
2.422235e-01
2.279694e-01
4.992434e-01
4.997358e-01
4.974419e-01
4.987811e-01
4.996668e-01
4.946829e-01
4.968824e-01
4.985237e-01
4.996036e-01
4.876822e-01
4.911286e-01
4.940403e-01
4.964505e-01
4.983165e-01
4.995481e-01
4.741628e-01
4.818789e-01
4.865046e-01
4.902259e-01
4.933910e-01
4.960378e-01
4.981086e-01
4.994885e-01
4.766562e-01
4.812038e-01
4.854603e-01
4.893151e-01
4.927052e-01
4.955789e-01
4.978545e-01
4.994039e-01
4.654392e-01
4.700991e-01
4.748879e-01
4.797145e-01
4.842073e-01
4.882902e-01
4.919065e-01
4.949922e-01
4.974647e-01
4.992179e-01
4.996723e-01
4.554489e-01
4.618689e-01
4.675424e-01
4.729527e-01
4.780665e-01
4.827986e-01
4.870986e-01
4.909101e-01
4.941547e-01
4.967128e-01
4.984214e-01
4.995640e-01
4.368336e-01
4.453125e-01
4.526646e-01
4.591807e-01
4.652303e-01
4.709330e-01
4.762692e-01
4.811990e-01
4.856800e-01
4.896581e-01
4.930670e-01
4.958410e-01
4.980012e-01
4.994607e-01
4.135549e-01
4.254316e-01
4.347645e-01
4.428811e-01
4.500061e-01
4.566230e-01
3.737799e-01
3.616294e-01
3.503654e-01
3.399316e-01
3.294936e-01
3.188328e-01
3.078860e-01
2.966306e-01
2.850215e-01
2.729750e-01
2.605229e-01
2.475148e-01
2.345464e-01
4.628771e-01
4.687673e-01
4.742668e-01
4.793508e-01
4.839812e-01
4.881287e-01
4.917916e-01
4.949620e-01
4.975979e-01
4.993483e-01
2.235301e-01
2.377136e-01
2.520564e-01
2.665844e-01
2.812662e-01
2.960421e-01
3.108358e-01
3.255599e-01
3.401241e-01
3.544633e-01
3.685967e-01
3.825148e-01
3.961235e-01
4.095248e-01
4.223419e-01
4.343557e-01
4.454203e-01
4.560570e-01
4.666049e-01
4.739387e-01
4.808530e-01
4.882520e-01
4.934344e-01
4.973827e-01
4.026877e-01
4.154315e-01
4.242024e-01
4.328671e-01
4.401943e-01
4.472159e-01
4.539716e-01
4.603777e-01
4.663793e-01
4.719921e-01
4.771926e-01
4.819071e-01
4.862140e-01
4.902060e-01
4.937121e-01
4.973500e-01
4.990075e-01
2.242652e-01
2.390685e-01
2.540052e-01
2.690603e-01
2.842009e-01
2.993740e-01
3.145123e-01
3.295437e-01
3.444020e-01
3.590377e-01
3.734058e-01
3.874394e-01
4.010640e-01
4.141871e-01
4.266707e-01
4.384342e-01
4.494261e-01
4.596429e-01
4.687529e-01
4.767975e-01
4.839230e-01
4.901352e-01
4.950265e-01
4.984928e-01
2.249994e-01
2.404565e-01
2.559882e-01
2.715913e-01
2.872287e-01
3.028420e-01
3.183633e-01
3.337234e-01
3.488560e-01
3.636974e-01
3.781794e-01
3.922254e-01
4.057538e-01
4.186796e-01
4.309228e-01
4.424145e-01
4.530829e-01
4.628402e-01
4.716062e-01
4.793844e-01
4.861276e-01
4.917520e-01
4.960917e-01
4.989492e-01
2.257499e-01
2.418751e-01
2.580594e-01
2.742737e-01
2.904555e-01
3.065343e-01
3.224399e-01
3.381033e-01
3.534566e-01
3.901040e-01
3.775089e-01
3.656432e-01
3.559149e-01
3.459934e-01
3.357196e-01
3.250832e-01
3.140861e-01
3.027253e-01
2.909813e-01
2.788451e-01
2.662813e-01
2.532701e-01
2.391182e-01
2.279462e-01
3.684308e-01
3.829549e-01
3.969544e-01
4.103528e-01
4.230766e-01
4.350581e-01
4.462313e-01
4.565285e-01
4.658881e-01
4.742660e-01
4.816209e-01
4.878870e-01
4.929810e-01
4.967904e-01
4.991787e-01
2.264379e-01
2.433765e-01
2.603477e-01
2.772520e-01
2.940067e-01
3.105431e-01
3.267990e-01
3.427140e-01
3.582253e-01
3.732695e-01
3.877823e-01
4.016932e-01
4.149266e-01
4.274121e-01
4.390918e-01
4.499085e-01
4.598062e-01
4.687400e-01
4.766727e-01
4.835548e-01
4.893259e-01
4.939229e-01
4.972767e-01
4.993180e-01
2.273382e-01
2.452810e-01
2.631274e-01
2.807349e-01
2.980308e-01
3.149677e-01
3.315017e-01
3.475919e-01
3.631875e-01
3.782434e-01
3.927054e-01
4.064951e-01
4.195249e-01
4.317211e-01
4.430512e-01
4.534676e-01
4.629262e-01
4.713958e-01
4.788538e-01
4.852472e-01
4.905324e-01
4.946763e-01
4.976455e-01
4.994181e-01
2.288822e-01
2.479739e-01
2.666910e-01
2.849191e-01
3.026629e-01
3.199031e-01
3.365909e-01
3.527435e-01
3.683322e-01
3.833697e-01
3.977719e-01
4.114204e-01
4.242107e-01
4.360393e-01
4.469607e-01
4.569173e-01
4.659058e-01
4.738862e-01
4.808580e-01
4.867499e-01
4.915700e-01
4.953147e-01
4.979571e-01
4.995040e-01
2.311135e-01
2.517550e-01
2.712673e-01
2.898852e-01
3.080377e-01
3.254940e-01
3.420448e-01
3.580467e-01
3.735448e-01
3.887204e-01
4.030521e-01
4.165363e-01
4.291112e-01
4.404147e-01
4.508150e-01
4.601907e-01
4.688124e-01
4.762913e-01
4.827308e-01
4.880540e-01
4.924712e-01
4.959063e-01
4.053277e-01
3.929067e-01
3.790485e-01
3.712232e-01
3.620319e-01
3.522344e-01
3.419769e-01
3.312947e-01
3.202272e-01
3.088011e-01
2.970193e-01
2.848724e-01
2.723753e-01
2.596362e-01
2.475146e-01
2.344898e-01
4.982704e-01
4.995971e-01
2.357531e-01
2.582749e-01
2.763431e-01
2.955040e-01
3.145496e-01
3.322616e-01
3.476534e-01
3.614667e-01
3.791370e-01
3.946257e-01
4.085527e-01
4.217715e-01
4.348232e-01
4.452293e-01
4.539715e-01
4.630717e-01
4.721012e-01
4.789845e-01
4.841441e-01
4.890444e-01
4.932361e-01
4.965916e-01
4.987212e-01
4.996680e-01
4.996714e-01
4.995349e-01
4.985686e-01
4.996984e-01
4.992028e-01
4.980795e-01
4.965970e-01
4.995417e-01
4.985849e-01
4.973737e-01
4.956822e-01
4.937100e-01
4.992476e-01
4.980621e-01
4.964824e-01
4.945917e-01
4.923380e-01
4.898553e-01
4.995639e-01
4.983597e-01
4.973094e-01
4.955499e-01
4.933574e-01
4.908372e-01
4.880271e-01
4.849974e-01
4.792056e-01
4.994126e-01
4.981336e-01
4.963605e-01
4.944537e-01
4.920369e-01
4.892183e-01
4.860977e-01
4.827497e-01
4.726335e-01
4.996906e-01
4.991107e-01
4.977001e-01
4.957079e-01
4.933061e-01
4.906218e-01
4.875224e-01
4.840669e-01
4.803676e-01
4.765329e-01
4.652750e-01
4.995125e-01
4.985006e-01
4.970638e-01
4.949332e-01
4.922657e-01
4.891955e-01
4.857813e-01
4.819966e-01
4.778890e-01
4.736371e-01
4.693964e-01
4.992080e-01
4.979803e-01
4.962502e-01
4.939975e-01
4.911479e-01
4.878010e-01
4.840445e-01
4.799234e-01
4.754562e-01
4.706377e-01
4.658794e-01
4.613247e-01
4.567231e-01
4.464969e-01
4.996120e-01
4.984624e-01
4.973190e-01
4.954351e-01
4.929568e-01
4.899235e-01
4.863550e-01
4.823224e-01
4.778697e-01
4.730536e-01
4.679310e-01
4.621621e-01
4.570711e-01
4.523918e-01
4.082812e-01
4.194789e-01
4.994777e-01
4.984002e-01
4.966727e-01
4.946037e-01
4.919169e-01
4.886458e-01
4.848422e-01
4.805626e-01
4.758534e-01
4.706798e-01
4.651785e-01
4.596088e-01
4.518479e-01
4.473405e-01
4.431227e-01
4.328687e-01
2.096000e-01
2.096000e-01
2.096000e-01
2.096000e-01
2.096000e-01
2.096000e-01
2.096000e-01
2.096000e-01
2.096000e-01
2.096000e-01
2.096000e-01
2.096000e-01
2.096000e-01
2.096000e-01
2.096000e-01
2.096000e-01
2.096000e-01
2.096000e-01
2.096000e-01
2.096000e-01
2.096000e-01
2.096000e-01
2.096000e-01
2.096000e-01
2.096000e-01
2.096000e-01
2.096000e-01
2.096000e-01
2.096000e-01
2.096000e-01
2.096000e-01
2.096000e-01
2.096000e-01
2.096000e-01
2.096000e-01
2.096000e-01
2.096000e-01
2.096000e-01
2.096000e-01
2.096000e-01
2.096000e-01
2.096000e-01
2.096000e-01
2.096000e-01
2.096000e-01
2.096000e-01
2.096000e-01
2.096000e-01
2.096000e-01
2.096000e-01
2.096000e-01
2.096000e-01
2.096000e-01
2.096000e-01
2.096000e-01
2.096000e-01
2.096000e-01
2.096000e-01
2.096000e-01
2.096000e-01
2.096000e-01
2.096000e-01
2.096000e-01
2.096000e-01
2.096000e-01
2.096000e-01
2.096000e-01
2.096000e-01
2.096000e-01
2.096000e-01
2.096000e-01
2.096000e-01
2.096000e-01
2.096000e-01
2.096000e-01
2.096000e-01
2.096000e-01
2.096000e-01
2.096000e-01
2.096000e-01
2.096000e-01
2.096000e-01
2.096000e-01
2.096000e-01
2.096000e-01
2.096000e-01
2.096000e-01
2.096000e-01
2.096000e-01
2.096000e-01
2.096000e-01
2.096000e-01
2.096000e-01
2.096000e-01
2.096000e-01
2.096000e-01
2.096000e-01
2.096000e-01
2.096000e-01
2.096000e-01
2.096000e-01
2.096000e-01
2.096000e-01
2.096000e-01
2.096000e-01
2.096000e-01
2.096000e-01
2.096000e-01
2.096000e-01
2.096000e-01
2.096000e-01
2.096000e-01
2.096000e-01
2.096000e-01
2.096000e-01
2.096000e-01
2.096000e-01
2.096000e-01
2.096000e-01
2.096000e-01
2.096000e-01
2.096000e-01
2.096000e-01
2.096000e-01
2.096000e-01
2.096000e-01
2.096000e-01
2.096000e-01
2.096000e-01
2.096000e-01
2.096000e-01
2.096000e-01
2.096000e-01
2.096000e-01
2.096000e-01
2.096000e-01
2.096000e-01
2.096000e-01
2.096000e-01
2.096000e-01
2.096000e-01
2.096000e-01
2.096000e-01
2.096000e-01
2.096000e-01
2.096000e-01
2.096000e-01
2.096000e-01
2.096000e-01
2.096000e-01
2.096000e-01
2.096000e-01
2.096000e-01
2.096000e-01
2.096000e-01
2.096000e-01
2.096000e-01
2.096000e-01
2.096000e-01
2.096000e-01
2.096000e-01
2.096000e-01
2.096000e-01
2.096000e-01
2.096000e-01
2.096000e-01
2.096000e-01
2.096000e-01
2.096000e-01
2.096000e-01
2.096000e-01
2.096000e-01
2.096000e-01
2.096000e-01
2.096000e-01
2.096000e-01
2.096000e-01
2.096000e-01
2.096000e-01
2.096000e-01
2.096000e-01
2.096000e-01
2.096000e-01
2.096000e-01
2.096000e-01
2.096000e-01
2.096000e-01
2.096000e-01
2.096000e-01
2.096000e-01
2.096000e-01
2.096000e-01
2.096000e-01
2.096000e-01
2.096000e-01
2.096000e-01
2.096000e-01
2.096000e-01
2.096000e-01
2.096000e-01
2.096000e-01
2.096000e-01
2.096000e-01
2.096000e-01
2.096000e-01
2.096000e-01
2.096000e-01
2.096000e-01
2.096000e-01
2.096000e-01
2.096000e-01
2.096000e-01
2.096000e-01
2.096000e-01
2.096000e-01
2.096000e-01
2.096000e-01
2.096000e-01
2.096000e-01
2.096000e-01
2.096000e-01
2.096000e-01
2.096000e-01
2.096000e-01
2.096000e-01
2.096000e-01
2.096000e-01
2.096000e-01
2.096000e-01
2.096000e-01
2.096000e-01
2.096000e-01
2.096000e-01
2.096000e-01
2.096000e-01
2.096000e-01
2.096000e-01
2.096000e-01
2.096000e-01
2.096000e-01
2.096000e-01
2.096000e-01
2.096000e-01
2.096000e-01
2.096000e-01
2.096000e-01
2.096000e-01
2.096000e-01
2.096000e-01
2.096000e-01
2.096000e-01
2.096000e-01
2.096000e-01
2.096000e-01
2.096000e-01
2.096000e-01
2.096000e-01
2.096000e-01
2.096000e-01
2.096000e-01
2.096000e-01
2.096000e-01
2.096000e-01
2.096000e-01
2.096000e-01
2.096000e-01
2.096000e-01
2.096000e-01
2.096000e-01
2.096000e-01
2.096000e-01
2.096000e-01
2.096000e-01
2.096000e-01
2.096000e-01
2.096000e-01
2.096000e-01
2.096000e-01
2.096000e-01
2.096000e-01
2.096000e-01
2.096000e-01
2.096000e-01
2.096000e-01
2.096000e-01
2.096000e-01
2.096000e-01
2.096000e-01
2.096000e-01
2.096000e-01
2.096000e-01
2.096000e-01
2.096000e-01
2.096000e-01
2.096000e-01
2.096000e-01
2.096000e-01
2.096000e-01
2.096000e-01
2.096000e-01
2.096000e-01
2.096000e-01
2.096000e-01
2.096000e-01
2.096000e-01
2.096000e-01
2.096000e-01
2.096000e-01
2.096000e-01
2.096000e-01
2.096000e-01
2.096000e-01
2.096000e-01
2.096000e-01
2.096000e-01
2.096000e-01
2.096000e-01
2.096000e-01
2.096000e-01
2.096000e-01
2.096000e-01
2.096000e-01
2.096000e-01
2.096000e-01
2.096000e-01
2.096000e-01
2.096000e-01
2.096000e-01
2.096000e-01
2.096000e-01
2.096000e-01
2.096000e-01
2.096000e-01
2.096000e-01
2.096000e-01
2.096000e-01
2.096000e-01
2.096000e-01
2.096000e-01
2.096000e-01
2.096000e-01
2.096000e-01
2.096000e-01
2.096000e-01
2.096000e-01
2.096000e-01
2.096000e-01
2.096000e-01
2.096000e-01
2.096000e-01
2.096000e-01
2.096000e-01
2.096000e-01
2.096000e-01
2.096000e-01
2.096000e-01
2.096000e-01
2.096000e-01
2.096000e-01
2.096000e-01
2.096000e-01
2.096000e-01
2.096000e-01
2.096000e-01
2.096000e-01
2.096000e-01
2.096000e-01
2.096000e-01
2.096000e-01
2.096000e-01
3.596000e-01
3.596000e-01
3.596000e-01
3.596000e-01
3.596000e-01
3.596000e-01
3.596000e-01
3.596000e-01
3.596000e-01
3.596000e-01
3.596000e-01
3.596000e-01
3.596000e-01
3.596000e-01
3.596000e-01
3.596000e-01
3.596000e-01
3.596000e-01
3.596000e-01
3.596000e-01
3.596000e-01
3.596000e-01
3.596000e-01
3.596000e-01
3.596000e-01
3.596000e-01
3.596000e-01
3.596000e-01
3.596000e-01
3.596000e-01
3.596000e-01
3.596000e-01
3.596000e-01
3.198860e-01
3.139751e-01
3.294005e-01
3.186809e-01
3.228045e-01
3.109571e-01
3.098541e-01
3.050028e-01
3.008173e-01
3.173315e-01
3.101020e-01
3.042874e-01
3.139617e-01
3.024430e-01
3.105258e-01
2.327879e-01
3.582070e-01
3.559911e-01
3.512348e-01
3.532320e-01
3.516611e-01
3.474373e-01
3.517099e-01
3.488851e-01
3.460144e-01
3.461571e-01
3.426542e-01
3.389568e-01
3.424816e-01
3.387738e-01
3.350653e-01
3.307119e-01
3.559399e-01
3.381875e-01
3.340992e-01
3.299259e-01
3.273970e-01
3.213643e-01
3.160456e-01
3.208213e-01
3.101097e-01
3.341497e-01
3.254893e-01
3.585172e-01
3.152120e-01
3.025682e-01
3.104186e-01
3.046753e-01
2.988765e-01
2.942122e-01
2.915742e-01
2.968658e-01
2.909928e-01
2.861219e-01
2.823266e-01
2.885144e-01
2.813953e-01
2.767016e-01
2.724754e-01
2.697043e-01
2.659719e-01
2.619188e-01
2.545266e-01
2.505534e-01
2.371153e-01
2.806543e-01
2.645287e-01
2.509916e-01
2.401829e-01
2.272552e-01
3.513283e-01
3.476109e-01
3.590547e-01
3.571391e-01
3.582667e-01
3.541014e-01
3.556753e-01
3.521509e-01
3.479697e-01
3.522275e-01
3.553051e-01
3.580555e-01
2.578575e-01
2.457599e-01
2.287563e-01
2.570294e-01
2.404896e-01
2.225095e-01
3.511375e-01
3.474411e-01
3.589969e-01
3.570423e-01
3.581556e-01
3.540326e-01
3.555247e-01
3.519706e-01
3.477778e-01
2.568510e-01
2.451477e-01
2.296037e-01
2.581033e-01
2.410969e-01
2.226252e-01
3.589531e-01
3.569126e-01
3.579830e-01
3.538400e-01
3.552236e-01
3.516930e-01
3.477372e-01
2.587631e-01
2.463075e-01
2.296020e-01
3.587739e-01
3.561550e-01
3.534425e-01
3.514236e-01
3.488883e-01
3.478365e-01
3.413630e-01
2.582572e-01
2.427898e-01
2.236574e-01
2.845485e-01
2.704269e-01
2.551992e-01
2.367974e-01
2.224173e-01
3.516222e-01
3.480694e-01
3.590252e-01
3.571087e-01
3.581706e-01
3.541113e-01
3.555754e-01
3.519492e-01
3.478032e-01
2.602298e-01
2.477566e-01
2.306185e-01
2.578113e-01
2.417499e-01
3.387073e-01
3.457620e-01
3.503616e-01
3.539007e-01
2.230191e-01
3.589750e-01
3.570795e-01
3.543317e-01
2.599389e-01
2.473617e-01
2.295636e-01
3.495552e-01
3.454607e-01
3.587681e-01
3.565029e-01
3.577498e-01
3.531804e-01
3.545705e-01
3.487216e-01
3.502311e-01
3.430210e-01
3.453921e-01
2.797062e-01
2.665000e-01
2.532718e-01
2.402061e-01
2.256228e-01
2.527039e-01
2.373833e-01
2.212467e-01
3.587399e-01
3.562526e-01
3.573903e-01
3.526636e-01
3.542608e-01
3.504753e-01
3.461988e-01
3.279875e-01
2.549267e-01
2.436395e-01
2.276812e-01
3.591059e-01
3.565935e-01
3.530688e-01
3.504954e-01
3.478455e-01
3.465914e-01
3.395136e-01
2.558512e-01
2.403581e-01
2.225659e-01
2.815375e-01
2.677846e-01
2.530459e-01
2.353020e-01
2.216031e-01
3.501265e-01
3.461882e-01
3.588316e-01
3.566208e-01
3.578658e-01
3.533448e-01
3.548564e-01
3.507461e-01
3.461854e-01
2.576645e-01
2.455518e-01
2.291422e-01
2.543527e-01
2.392226e-01
2.218838e-01
3.502269e-01
3.463456e-01
3.588339e-01
3.195998e-01
3.565351e-01
3.578289e-01
3.531284e-01
3.548570e-01
3.509822e-01
3.465221e-01
2.551278e-01
2.430560e-01
2.274196e-01
2.528787e-01
2.379514e-01
2.212567e-01
3.587770e-01
3.563473e-01
3.574528e-01
3.529020e-01
3.540121e-01
3.494352e-01
3.447631e-01
2.538069e-01
2.424010e-01
2.265375e-01
3.585549e-01
3.566232e-01
3.540384e-01
3.483999e-01
3.492234e-01
3.441310e-01
3.409575e-01
2.530321e-01
2.377816e-01
2.211107e-01
2.841987e-01
2.709689e-01
2.513720e-01
2.378515e-01
2.252858e-01
3.586359e-01
3.557082e-01
3.563689e-01
3.366821e-01
3.434644e-01
3.485045e-01
3.522264e-01
3.545904e-01
3.575312e-01
3.515616e-01
3.526304e-01
3.479739e-01
3.431355e-01
2.528108e-01
2.415340e-01
2.265460e-01
3.585800e-01
3.546035e-01
3.483442e-01
3.438679e-01
3.381136e-01
2.532131e-01
2.377001e-01
2.210660e-01
2.252185e-01
3.525830e-01
3.502479e-01
3.463333e-01
3.458722e-01
3.393919e-01
3.378551e-01
3.397703e-01
3.326553e-01
3.244862e-01
3.274352e-01
3.309222e-01
3.329345e-01
3.163631e-01
3.207092e-01
3.246276e-01
3.232026e-01
2.965700e-01
2.872091e-01
2.800893e-01
2.729227e-01
2.645974e-01
2.546300e-01
2.436760e-01
2.354826e-01
2.255565e-01
2.420209e-01
2.475145e-01
2.573502e-01
2.580254e-01
2.739884e-01
2.701951e-01
2.673015e-01
2.839588e-01
2.797603e-01
2.762429e-01
2.840739e-01
2.970941e-01
2.920881e-01
2.878041e-01
3.087494e-01
3.040356e-01
2.989297e-01
2.949168e-01
2.915065e-01
3.166234e-01
2.992778e-01
3.070899e-01
3.106176e-01
3.564301e-01
2.240619e-01
3.583389e-01
3.581673e-01
3.568203e-01
3.545424e-01
3.590113e-01
3.498852e-01
3.477839e-01
3.448556e-01
3.207099e-01
3.268606e-01
3.347327e-01
3.415194e-01
3.469161e-01
3.510042e-01
3.541661e-01
3.570931e-01
3.590675e-01
3.578312e-01
3.556366e-01
3.523219e-01
3.341322e-01
3.588452e-01
3.572269e-01
3.548544e-01
3.513653e-01
3.472712e-01
3.433105e-01
3.392255e-01
3.592574e-01
3.583992e-01
3.561285e-01
3.543621e-01
3.500198e-01
3.455471e-01
3.414266e-01
3.380468e-01
3.313697e-01
3.251657e-01
2.288470e-01
2.200481e-01
2.569006e-01
2.480312e-01
2.368044e-01
2.259064e-01
2.591245e-01
2.446398e-01
2.934323e-01
2.877706e-01
2.782676e-01
2.649038e-01
2.533767e-01
2.422702e-01
2.313344e-01
2.219661e-01
2.782163e-01
2.678451e-01
3.495001e-01
3.437216e-01
3.372761e-01
3.290156e-01
3.191123e-01
3.074673e-01
2.947605e-01
3.589887e-01
3.575319e-01
3.542778e-01
3.492410e-01
3.427929e-01
3.342902e-01
3.251651e-01
3.147942e-01
3.036184e-01
2.940075e-01
2.826283e-01
2.716043e-01
2.593325e-01
2.427951e-01
2.281326e-01
3.058097e-01
2.985743e-01
2.899112e-01
2.795626e-01
2.686510e-01
2.578319e-01
2.468877e-01
2.360041e-01
2.254573e-01
2.211409e-01
3.393227e-01
3.326949e-01
3.236744e-01
3.126294e-01
2.453221e-01
2.398599e-01
2.262407e-01
2.976865e-01
2.841358e-01
2.696368e-01
2.548303e-01
2.395440e-01
2.264671e-01
3.494316e-01
3.436650e-01
3.370167e-01
3.282927e-01
3.183214e-01
3.071814e-01
2.949894e-01
2.812886e-01
2.677933e-01
2.541111e-01
3.588764e-01
3.574298e-01
3.542958e-01
3.498701e-01
3.432102e-01
3.331330e-01
3.234850e-01
3.127299e-01
3.011139e-01
2.900706e-01
3.588672e-01
3.565931e-01
3.533442e-01
3.497898e-01
3.446206e-01