VARIABLES = "X" "Y" "Z" "FREF"
ZONE T="instant 083"
Nodes=3151, Elements=6298
ZONETYPE=FETriangle
DATAPACKING=BLOCK
VARLOCATION = ([1-3]=NODAL, [4]=CELLCENTERED)
5.000000e-01
2.563843e-01
2.764890e-01
2.921919e-01
3.052404e-01
3.205664e-01
3.362577e-01
3.521427e-01
3.689648e-01
3.864397e-01
4.027165e-01
4.166494e-01
4.291926e-01
4.406450e-01
4.510405e-01
4.601424e-01
4.677796e-01
4.735341e-01
4.787840e-01
4.843026e-01
4.891194e-01
4.929252e-01
4.957206e-01
4.977733e-01
4.991221e-01
4.998370e-01
2.408000e-01
2.408000e-01
2.408000e-01
2.408000e-01
2.408000e-01
2.408000e-01
2.408000e-01
2.408000e-01
2.408000e-01
2.408000e-01
2.408000e-01
2.408000e-01
3.903016e-01
3.891885e-01
3.859484e-01
3.805616e-01
3.731507e-01
3.681538e-01
3.618268e-01
3.533629e-01
3.457149e-01
3.382730e-01
3.300502e-01
3.202235e-01
3.122862e-01
3.048662e-01
2.979036e-01
2.889072e-01
2.797371e-01
2.733073e-01
2.644208e-01
2.531171e-01
3.908000e-01
4.899337e-01
4.792495e-01
4.692397e-01
4.593592e-01
4.487096e-01
4.380599e-01
4.277285e-01
4.176550e-01
4.079008e-01
3.989149e-01
4.139988e-01
2.834937e-01
2.718150e-01
4.244703e-01
4.076089e-01
2.903433e-01
3.001488e-01
2.817887e-01
3.006128e-01
2.601784e-01
3.025050e-01
2.884629e-01
3.054913e-01
3.163827e-01
4.906386e-01
3.285513e-01
3.417789e-01
3.227324e-01
3.315865e-01
3.766377e-01
3.846769e-01
4.153532e-01
3.992544e-01
3.968642e-01
4.223780e-01
4.280320e-01
4.118110e-01
4.862479e-01
4.802894e-01
4.210516e-01
4.315979e-01
4.255745e-01
4.399461e-01
4.330331e-01
4.418132e-01
3.981048e-01
4.135613e-01
4.055135e-01
3.915034e-01
2.826999e-01
2.682040e-01
2.539994e-01
2.581665e-01
2.576817e-01
2.742671e-01
2.893865e-01
2.587566e-01
2.741889e-01
2.903927e-01
3.055768e-01
2.501942e-01
2.607110e-01
2.756439e-01
2.909103e-01
4.885468e-01
3.072659e-01
3.215654e-01
3.235996e-01
3.375458e-01
3.267312e-01
3.384187e-01
3.527536e-01
2.565484e-01
2.740678e-01
2.924994e-01
3.106652e-01
3.064247e-01
3.067248e-01
3.145443e-01
3.232216e-01
3.391679e-01
3.518273e-01
3.600476e-01
3.695292e-01
2.573438e-01
2.741077e-01
2.905987e-01
3.117407e-01
3.246599e-01
3.364071e-01
3.498579e-01
3.405950e-01
3.506963e-01
3.539563e-01
3.648577e-01
3.759071e-01
3.888522e-01
3.201063e-01
3.314144e-01
3.447054e-01
3.646877e-01
4.850139e-01
4.778343e-01
4.743994e-01
4.683648e-01
3.776474e-01
3.897984e-01
4.030809e-01
3.260514e-01
3.551941e-01
3.672513e-01
3.786344e-01
3.906127e-01
4.025699e-01
4.158125e-01
3.390493e-01
3.502750e-01
3.638071e-01
3.686951e-01
3.813067e-01
3.933775e-01
4.811726e-01
4.732263e-01
4.677331e-01
4.618140e-01
4.576214e-01
4.020281e-01
4.136385e-01
4.271017e-01
3.787933e-01
3.940836e-01
4.100595e-01
4.231763e-01
4.374397e-01
3.443493e-01
3.567789e-01
3.681964e-01
3.818376e-01
4.066408e-01
4.210339e-01
4.334820e-01
4.471093e-01
3.934032e-01
4.067175e-01
4.180382e-01
4.313053e-01
4.429016e-01
4.557295e-01
4.481484e-01
4.553831e-01
3.599576e-01
3.718482e-01
3.828760e-01
3.955368e-01
4.065082e-01
4.181531e-01
4.278485e-01
4.406816e-01
4.511243e-01
4.634722e-01
4.310032e-01
4.360835e-01
4.762004e-01
4.682190e-01
4.626651e-01
4.553579e-01
4.517834e-01
4.461195e-01
4.405713e-01
4.385193e-01
4.450810e-01
4.500085e-01
4.561686e-01
4.621096e-01
4.702513e-01
2.408000e-01
4.997788e-01
4.983666e-01
4.960263e-01
4.930795e-01
4.882048e-01
4.824971e-01
4.749742e-01
4.652295e-01
4.533465e-01
4.410969e-01
4.297610e-01
4.174706e-01
4.046962e-01
3.909512e-01
3.787755e-01
3.685853e-01
3.582968e-01
3.464306e-01
3.336289e-01
3.205507e-01
3.073114e-01
2.937330e-01
2.800021e-01
2.660184e-01
2.525661e-01
5.000000e-01
3.988925e-01
4.082380e-01
4.173344e-01
4.280312e-01
4.377818e-01
4.479273e-01
4.587846e-01
4.703429e-01
4.809452e-01
4.910473e-01
3.908000e-01
2.507186e-01
2.604639e-01
2.730175e-01
2.899656e-01
3.016843e-01
3.125606e-01
3.231894e-01
3.328722e-01
3.408452e-01
3.463210e-01
3.536894e-01
3.604625e-01
3.656534e-01
3.696884e-01
3.733350e-01
3.785596e-01
3.824367e-01
3.845853e-01
3.867133e-01
3.888062e-01
3.903470e-01
2.408000e-01
2.408000e-01
2.408000e-01
2.408000e-01
2.408000e-01
2.408000e-01
2.408000e-01
2.408000e-01
2.408000e-01
2.408000e-01
2.408000e-01
4.174087e-01
4.362445e-01
2.728445e-01
3.017192e-01
2.914812e-01
3.954843e-01
3.983414e-01
4.094146e-01
4.070953e-01
4.211523e-01
4.205921e-01
4.262871e-01
4.114405e-01
4.479559e-01
2.543128e-01
4.403893e-01
4.269321e-01
4.413569e-01
4.176862e-01
4.345080e-01
4.266317e-01
4.453308e-01
4.373461e-01
2.563369e-01
3.084481e-01
2.747150e-01
2.689144e-01
2.582728e-01
3.001355e-01
3.228177e-01
2.863864e-01
3.200336e-01
3.029977e-01
3.258150e-01
3.129996e-01
3.345723e-01
3.433994e-01
2.644825e-01
3.989706e-01
2.554571e-01
2.660451e-01
2.838341e-01
3.921137e-01
4.019600e-01
4.089242e-01
4.888768e-01
4.774679e-01
4.840339e-01
4.857789e-01
4.611644e-01
4.668709e-01
4.709121e-01
4.749761e-01
2.823400e-01
2.716747e-01
2.561252e-01
4.803288e-01
4.594371e-01
4.628758e-01
4.671425e-01
4.761578e-01
4.522722e-01
4.544610e-01
4.657039e-01
4.706556e-01
3.897755e-01
3.938870e-01
4.008656e-01
4.397616e-01
4.487678e-01
4.600766e-01
4.318401e-01
4.432389e-01
4.468433e-01
4.520896e-01
4.541275e-01
4.557200e-01
4.588532e-01
3.800645e-01
4.052056e-01
4.156188e-01
4.278349e-01
4.347775e-01
4.417245e-01
4.485838e-01
3.829105e-01
3.854308e-01
3.917471e-01
4.186739e-01
4.270061e-01
2.961231e-01
2.858237e-01
4.317809e-01
4.374683e-01
3.683853e-01
3.951904e-01
4.013443e-01
4.116984e-01
4.176205e-01
4.211228e-01
4.260358e-01
3.716676e-01
3.730143e-01
3.781667e-01
4.006018e-01
4.069498e-01
4.098920e-01
4.142480e-01
3.787835e-01
3.086820e-01
2.969244e-01
2.842376e-01
2.698260e-01
2.543486e-01
3.825344e-01
3.916862e-01
3.958833e-01
3.978199e-01
4.017787e-01
3.525047e-01
3.560370e-01
3.560576e-01
3.616699e-01
3.793619e-01
3.830215e-01
3.853211e-01
3.890113e-01
3.611082e-01
3.644179e-01
3.652054e-01
3.704432e-01
3.734833e-01
3.758659e-01
2.571149e-01
2.726431e-01
2.927477e-01
3.065626e-01
3.194578e-01
3.332083e-01
3.465884e-01
3.320114e-01
3.335793e-01
3.424730e-01
3.453673e-01
3.431519e-01
3.487550e-01
3.525716e-01
3.604391e-01
3.598681e-01
3.608745e-01
3.215815e-01
3.098069e-01
2.981771e-01
2.855352e-01
2.712943e-01
2.557316e-01
3.241184e-01
3.350465e-01
3.468943e-01
3.019689e-01
3.120238e-01
3.227926e-01
3.344612e-01
5.000000e-01
5.000000e-01
5.000000e-01
5.000000e-01
5.000000e-01
5.000000e-01
5.000000e-01
5.000000e-01
5.000000e-01
5.000000e-01
5.000000e-01
5.000000e-01
5.000000e-01
5.000000e-01
5.000000e-01
5.000000e-01
5.000000e-01
5.000000e-01
5.000000e-01
5.000000e-01
5.000000e-01
5.000000e-01
5.000000e-01
5.000000e-01
5.000000e-01
5.000000e-01
5.000000e-01
5.000000e-01
5.000000e-01
5.000000e-01
5.000000e-01
5.000000e-01
5.000000e-01
2.408000e-01
2.408000e-01
2.408000e-01
2.408000e-01
2.408000e-01
2.408000e-01
2.408000e-01
2.408000e-01
2.408000e-01
2.408000e-01
2.408000e-01
2.408000e-01
2.408000e-01
2.408000e-01
2.408000e-01
2.408000e-01
2.408000e-01
2.408000e-01
2.408000e-01
2.408000e-01
2.408000e-01
2.408000e-01
2.408000e-01
2.408000e-01
2.408000e-01
2.408000e-01
2.408000e-01
2.408000e-01
2.408000e-01
2.408000e-01
2.408000e-01
2.408000e-01
2.408000e-01
3.988890e-01
4.069859e-01
4.035709e-01
4.114386e-01
4.197079e-01
4.377797e-01
4.245510e-01
4.302897e-01
3.708892e-01
3.783930e-01
3.842401e-01
3.855092e-01
3.912108e-01
3.956581e-01
4.003339e-01
4.186776e-01
4.056475e-01
3.989701e-01
4.114809e-01
4.238305e-01
3.924236e-01
3.924302e-01
2.631854e-01
2.542774e-01
4.035015e-01
4.159455e-01
4.283443e-01
4.148343e-01
4.229216e-01
4.312036e-01
4.259605e-01
4.334761e-01
4.364197e-01
4.522198e-01
4.273679e-01
4.364905e-01
4.233289e-01
4.408629e-01
4.296475e-01
4.176824e-01
4.448907e-01
4.344012e-01
4.241884e-01
4.137044e-01
4.444731e-01
4.524430e-01
4.495709e-01
4.418538e-01
4.351637e-01
2.806472e-01
2.697060e-01
2.572824e-01
4.102121e-01
4.177431e-01
4.241780e-01
4.045276e-01
4.120234e-01
3.989663e-01
2.539339e-01
2.637726e-01
2.660545e-01
2.757505e-01
2.785199e-01
2.861110e-01
2.885856e-01
2.913829e-01
2.920242e-01
2.979604e-01
3.014339e-01
3.044855e-01
3.053532e-01
3.106312e-01
3.144349e-01
3.177105e-01
3.132742e-01
3.189041e-01
3.237009e-01
3.275572e-01
3.309658e-01
3.223760e-01
3.274069e-01
3.324743e-01
3.369431e-01
3.407065e-01
3.441504e-01
3.309329e-01
2.964917e-01
2.860052e-01
2.747558e-01
2.630353e-01
2.549261e-01
3.362293e-01
3.412440e-01
3.459932e-01
3.502243e-01
3.537555e-01
3.571448e-01
3.443544e-01
3.499917e-01
3.548708e-01
3.594084e-01
3.634892e-01
3.665241e-01
3.698088e-01
3.516557e-01
3.580866e-01
3.637901e-01
3.682302e-01
3.726710e-01
3.768337e-01
3.786624e-01
3.820272e-01
3.588168e-01
3.653999e-01
3.718525e-01
3.777483e-01
3.810215e-01
3.857773e-01
3.908618e-01
3.892696e-01
3.941692e-01
4.036996e-01
4.338714e-01
3.882407e-01
3.995713e-01
4.117677e-01
3.119026e-01
3.021127e-01
2.915914e-01
2.808784e-01
2.710649e-01
2.614585e-01
4.238913e-01
3.802910e-01
3.928182e-01
4.058105e-01
4.183475e-01
4.294787e-01
4.397137e-01
4.060023e-01
4.129828e-01
4.176681e-01
4.220513e-01
4.258860e-01
4.308558e-01
4.358892e-01
4.406787e-01
4.408591e-01
4.433240e-01
4.460990e-01
4.480530e-01
4.500118e-01
4.524498e-01
4.310696e-01
4.371998e-01
4.424841e-01
4.474419e-01
4.521841e-01
4.560942e-01
4.585146e-01
4.405422e-01
4.431356e-01
4.479807e-01
4.538359e-01
4.580922e-01
4.613099e-01
4.641208e-01
4.505117e-01
4.598817e-01
4.586145e-01
4.652495e-01
4.667362e-01
4.693033e-01
4.722118e-01
4.742676e-01
4.588982e-01
4.690832e-01
4.749963e-01
4.787203e-01
4.668944e-01
4.755293e-01
4.793013e-01
4.825054e-01
4.800160e-01
4.863969e-01
3.275300e-01
3.180060e-01
3.079127e-01
2.975811e-01
2.873778e-01
2.770177e-01
2.649478e-01
2.557945e-01
4.843924e-01
4.901073e-01
4.862611e-01
4.909026e-01
4.956693e-01
4.986273e-01
4.969440e-01
4.947738e-01
4.944759e-01
4.922185e-01
4.911155e-01
4.915588e-01
4.869276e-01
4.874595e-01
4.882123e-01
4.891702e-01
4.819562e-01
4.824689e-01
4.833110e-01
4.843951e-01
4.856486e-01
4.765664e-01
4.774901e-01
4.787020e-01
4.801436e-01
4.817125e-01
4.755483e-01
4.774302e-01
4.696888e-01
4.707314e-01
4.720572e-01
4.736971e-01
4.618828e-01
4.630312e-01
4.644263e-01
4.662514e-01
4.684463e-01
4.707283e-01
4.728094e-01
4.533627e-01
4.544504e-01
4.557901e-01
4.577186e-01
4.603221e-01
4.631808e-01
4.657202e-01
4.675470e-01
4.352514e-01
4.359486e-01
4.451355e-01
4.461972e-01
4.479405e-01
4.511183e-01
4.544930e-01
4.584388e-01
4.592524e-01
4.621360e-01
4.370440e-01
4.457403e-01
4.312797e-01
2.842584e-01
3.055444e-01
2.935942e-01
3.100012e-01
3.043024e-01
3.253644e-01
3.214100e-01
3.154861e-01
3.450127e-01
3.378497e-01
3.433124e-01
3.337800e-01
3.238780e-01
3.137776e-01
3.035984e-01
2.932501e-01
2.824540e-01
2.721169e-01
2.618939e-01
3.322515e-01
3.264487e-01
3.622147e-01
3.549470e-01
3.485707e-01
3.427631e-01
3.371047e-01
3.713968e-01
3.646789e-01
3.586360e-01
3.529639e-01
3.474480e-01
3.871018e-01
3.802471e-01
3.740325e-01
3.683311e-01
3.628825e-01
3.574798e-01
4.017223e-01
3.951294e-01
3.888047e-01
3.831068e-01
3.777805e-01
3.725473e-01
3.671711e-01
4.148918e-01
4.093662e-01
4.028163e-01
3.971770e-01
3.919985e-01
3.870801e-01
3.819142e-01
3.764279e-01
4.257293e-01
4.237158e-01
4.158710e-01
4.105068e-01
4.053500e-01
4.009249e-01
3.962214e-01
3.907407e-01
3.851990e-01
4.579750e-01
4.506707e-01
4.414420e-01
4.309854e-01
4.193794e-01
4.068192e-01
3.935307e-01
4.486763e-01
4.385652e-01
4.272097e-01
4.143091e-01
4.013976e-01
2.545175e-01
2.531539e-01
2.555986e-01
2.688506e-01
2.647144e-01
2.724174e-01
2.831719e-01
2.540489e-01
2.661318e-01
2.771457e-01
2.867550e-01
2.971100e-01
2.548535e-01
2.675551e-01
2.793322e-01
2.902610e-01
3.005107e-01
3.107698e-01
3.592157e-01
3.493974e-01
3.395213e-01
3.295994e-01
3.195787e-01
3.093887e-01
2.989486e-01
2.884100e-01
2.775681e-01
2.654070e-01
2.551151e-01
2.515625e-01
2.582539e-01
2.695317e-01
2.812873e-01
2.926849e-01
3.035690e-01
3.140415e-01
3.242534e-01
2.507745e-01
2.540849e-01
2.643297e-01
2.731456e-01
2.837558e-01
2.949402e-01
3.060452e-01
3.168674e-01
3.274202e-01
3.376803e-01
2.576038e-01
2.677872e-01
2.775953e-01
2.870535e-01
2.975009e-01
3.083972e-01
3.193023e-01
3.300375e-01
3.406067e-01
3.512311e-01
3.627888e-01
2.522069e-01
2.622953e-01
2.714506e-01
2.813595e-01
2.909163e-01
3.003794e-01
3.108729e-01
3.216212e-01
3.323785e-01
3.429808e-01
3.533906e-01
3.637801e-01
3.730412e-01
2.530993e-01
2.644163e-01
2.741558e-01
2.847743e-01
2.948864e-01
3.041376e-01
3.131077e-01
3.240082e-01
3.345648e-01
3.452403e-01
3.556729e-01
3.658487e-01
3.763182e-01
3.841365e-01
2.476441e-01
2.547666e-01
2.653720e-01
2.772600e-01
2.856923e-01
2.985209e-01
3.085091e-01
3.173193e-01
3.248150e-01
3.373930e-01
3.471211e-01
3.579370e-01
3.680992e-01
3.777544e-01
3.897462e-01
3.951456e-01
3.751196e-01
3.647399e-01
3.547577e-01
3.450236e-01
3.352406e-01
3.252768e-01
3.150686e-01
3.046128e-01
2.938064e-01
2.824149e-01
2.708077e-01
2.575970e-01
4.993524e-01
4.997743e-01
4.978087e-01
4.989558e-01
4.997155e-01
4.954804e-01
4.973463e-01
4.987445e-01
4.996631e-01
4.895678e-01
4.924837e-01
4.949502e-01
4.969943e-01
4.985762e-01
4.996180e-01
4.780611e-01
4.846409e-01
4.885741e-01
4.917321e-01
4.944169e-01
4.966589e-01
4.984084e-01
4.995704e-01
4.801837e-01
4.840798e-01
4.877041e-01
4.909808e-01
4.938569e-01
4.962874e-01
4.982039e-01
4.995022e-01
4.705116e-01
4.745311e-01
4.786776e-01
4.828222e-01
4.866618e-01
4.901381e-01
4.932052e-01
4.958100e-01
4.978840e-01
4.993396e-01
4.997228e-01
4.618509e-01
4.674473e-01
4.723766e-01
4.770546e-01
4.814502e-01
4.854982e-01
4.891592e-01
4.923870e-01
4.951163e-01
4.972508e-01
4.986661e-01
4.996331e-01
4.455777e-01
4.530767e-01
4.595133e-01
4.651929e-01
4.704459e-01
4.753740e-01
4.799619e-01
4.841785e-01
4.879897e-01
4.913509e-01
4.942089e-01
4.965207e-01
4.983283e-01
4.995508e-01
4.251318e-01
4.356251e-01
4.438950e-01
4.510483e-01
4.572857e-01
4.630536e-01
3.905779e-01
3.795940e-01
3.693829e-01
3.599547e-01
3.505149e-01
3.408548e-01
3.309111e-01
3.206586e-01
3.100501e-01
2.990076e-01
2.875605e-01
2.755502e-01
2.635148e-01
4.684842e-01
4.735753e-01
4.783030e-01
4.826493e-01
4.865854e-01
4.900856e-01
4.931562e-01
4.958105e-01
4.980059e-01
4.994684e-01
2.538028e-01
2.670132e-01
2.803192e-01
2.937376e-01
3.072387e-01
3.207674e-01
3.342527e-01
3.476151e-01
3.607741e-01
3.736717e-01
3.863180e-01
3.987039e-01
4.107444e-01
4.225092e-01
4.337220e-01
4.441804e-01
4.537744e-01
4.629417e-01
4.718989e-01
4.781511e-01
4.840693e-01
4.902949e-01
4.946158e-01
4.979197e-01
4.156247e-01
4.268867e-01
4.346662e-01
4.423441e-01
4.487902e-01
4.549383e-01
4.608321e-01
4.663999e-01
4.715882e-01
4.764092e-01
4.808586e-01
4.848702e-01
4.884979e-01
4.918566e-01
4.948099e-01
4.978250e-01
4.992043e-01
2.545190e-01
2.682982e-01
2.821411e-01
2.960328e-01
3.099415e-01
3.238174e-01
3.375988e-01
3.512194e-01
3.646189e-01
3.777502e-01
3.905715e-01
4.030249e-01
4.150441e-01
4.265570e-01
4.374560e-01
4.476759e-01
4.571720e-01
4.659390e-01
4.737270e-01
4.805964e-01
4.866349e-01
4.918572e-01
4.959411e-01
4.987909e-01
2.552099e-01
2.695968e-01
2.839824e-01
2.983651e-01
3.127112e-01
3.269682e-01
3.410741e-01
3.549657e-01
3.685823e-01
3.818664e-01
3.947585e-01
4.071939e-01
4.191056e-01
4.304270e-01
4.410957e-01
4.510582e-01
4.602588e-01
4.686349e-01
4.761306e-01
4.827502e-01
4.884534e-01
4.931772e-01
4.967922e-01
4.991453e-01
2.559074e-01
2.709105e-01
2.858873e-01
3.008137e-01
3.156364e-01
3.302931e-01
3.447213e-01
3.588588e-01
3.726447e-01
4.050535e-01
3.937471e-01
3.830275e-01
3.742716e-01
3.653356e-01
3.560690e-01
3.464537e-01
3.364804e-01
3.261401e-01
3.154159e-01
3.043020e-01
2.927666e-01
2.808008e-01
2.678717e-01
2.577340e-01
3.860190e-01
3.989213e-01
4.112905e-01
4.230657e-01
4.341903e-01
4.446132e-01
4.542852e-01
4.631572e-01
4.711863e-01
4.783409e-01
4.845905e-01
4.898859e-01
4.941648e-01
4.973438e-01
4.993230e-01
2.565344e-01
2.722815e-01
2.879676e-01
3.035062e-01
3.188283e-01
3.338758e-01
3.485948e-01
3.629320e-01
3.768326e-01
3.902431e-01
4.031101e-01
4.153769e-01
4.269854e-01
4.378835e-01
4.480293e-01
4.573814e-01
4.659007e-01
4.735573e-01
4.803257e-01
4.861705e-01
4.910490e-01
4.949172e-01
4.977270e-01
4.994314e-01
2.573681e-01
2.740225e-01
2.904867e-01
3.066402e-01
3.224279e-01
3.378124e-01
3.527566e-01
3.672256e-01
3.811766e-01
3.945725e-01
4.073688e-01
4.195044e-01
4.309133e-01
4.415432e-01
4.513744e-01
4.603711e-01
4.685044e-01
4.757578e-01
4.821189e-01
4.875505e-01
4.920237e-01
4.955192e-01
4.980186e-01
4.995098e-01
2.588402e-01
2.765126e-01
2.937204e-01
3.104000e-01
3.265659e-01
3.421956e-01
3.572528e-01
3.717547e-01
3.856760e-01
3.990272e-01
4.117418e-01
4.237308e-01
4.349107e-01
4.452078e-01
4.546787e-01
4.632715e-01
4.709908e-01
4.778197e-01
4.837687e-01
4.887808e-01
4.928662e-01
4.960314e-01
4.982656e-01
4.995776e-01
2.608919e-01
2.799485e-01
2.978320e-01
3.148615e-01
3.313691e-01
3.471609e-01
3.620753e-01
3.764266e-01
3.902389e-01
4.036577e-01
4.162888e-01
4.281253e-01
4.390979e-01
4.489280e-01
4.579529e-01
4.660404e-01
4.734166e-01
4.798108e-01
4.853218e-01
4.898595e-01
4.936031e-01
4.965069e-01
4.183705e-01
4.072523e-01
3.949805e-01
3.879305e-01
3.796679e-01
3.708682e-01
3.616452e-01
3.520075e-01
3.419802e-01
3.315917e-01
3.208519e-01
3.097564e-01
2.983300e-01
2.866769e-01
2.755675e-01
2.635533e-01
4.985155e-01
4.996527e-01
2.650194e-01
2.858719e-01
3.024612e-01
3.198969e-01
3.371850e-01
3.531868e-01
3.670927e-01
3.794075e-01
3.950241e-01
4.087312e-01
4.210272e-01
4.326558e-01
4.439946e-01
4.530752e-01
4.606694e-01
4.684842e-01
4.761497e-01
4.820766e-01
4.865077e-01
4.906777e-01
4.942317e-01
4.970611e-01
4.988920e-01
4.997097e-01
4.997171e-01
4.996074e-01
4.987722e-01
4.997390e-01
4.993286e-01
4.983678e-01
4.970867e-01
4.996119e-01
4.987830e-01
4.977655e-01
4.963179e-01
4.946217e-01
4.993845e-01
4.983578e-01
4.969910e-01
4.953850e-01
4.934558e-01
4.913308e-01
4.996263e-01
4.986082e-01
4.977360e-01
4.962135e-01
4.943216e-01
4.921684e-01
4.897647e-01
4.871790e-01
4.822211e-01
4.995002e-01
4.984056e-01
4.968830e-01
4.952753e-01
4.931979e-01
4.907728e-01
4.881018e-01
4.852418e-01
4.765723e-01
4.997372e-01
4.992538e-01
4.980412e-01
4.963271e-01
4.942593e-01
4.919729e-01
4.893130e-01
4.863422e-01
4.831756e-01
4.799022e-01
4.702152e-01
4.995850e-01
4.987179e-01
4.975026e-01
4.956709e-01
4.933712e-01
4.907267e-01
4.878011e-01
4.845506e-01
4.810142e-01
4.773772e-01
4.737544e-01
4.993373e-01
4.982761e-01
4.967906e-01
4.948679e-01
4.924173e-01
4.895306e-01
4.862906e-01
4.827465e-01
4.789074e-01
4.747437e-01
4.706836e-01
4.667833e-01
4.627898e-01
4.538832e-01
4.996661e-01
4.986856e-01
4.977121e-01
4.960899e-01
4.939611e-01
4.913601e-01
4.882885e-01
4.848081e-01
4.809574e-01
4.768053e-01
4.724109e-01
4.673989e-01
4.630801e-01
4.590471e-01
4.205906e-01
4.306502e-01
4.995520e-01
4.986227e-01
4.971348e-01
4.953665e-01
4.930590e-01
4.902479e-01
4.869776e-01
4.832895e-01
4.792197e-01
4.747239e-01
4.699691e-01
4.652216e-01
4.585062e-01
4.546574e-01
4.509607e-01
4.420656e-01
2.408000e-01
2.408000e-01
2.408000e-01
2.408000e-01
2.408000e-01
2.408000e-01
2.408000e-01
2.408000e-01
2.408000e-01
2.408000e-01
2.408000e-01
2.408000e-01
2.408000e-01
2.408000e-01
2.408000e-01
2.408000e-01
2.408000e-01
2.408000e-01
2.408000e-01
2.408000e-01
2.408000e-01
2.408000e-01
2.408000e-01
2.408000e-01
2.408000e-01
2.408000e-01
2.408000e-01
2.408000e-01
2.408000e-01
2.408000e-01
2.408000e-01
2.408000e-01
2.408000e-01
2.408000e-01
2.408000e-01
2.408000e-01
2.408000e-01
2.408000e-01
2.408000e-01
2.408000e-01
2.408000e-01
2.408000e-01
2.408000e-01
2.408000e-01
2.408000e-01
2.408000e-01
2.408000e-01
2.408000e-01
2.408000e-01
2.408000e-01
2.408000e-01
2.408000e-01
2.408000e-01
2.408000e-01
2.408000e-01
2.408000e-01
2.408000e-01
2.408000e-01
2.408000e-01
2.408000e-01
2.408000e-01
2.408000e-01
2.408000e-01
2.408000e-01
2.408000e-01
2.408000e-01
2.408000e-01
2.408000e-01
2.408000e-01
2.408000e-01
2.408000e-01
2.408000e-01
2.408000e-01
2.408000e-01
2.408000e-01
2.408000e-01
2.408000e-01
2.408000e-01
2.408000e-01
2.408000e-01
2.408000e-01
2.408000e-01
2.408000e-01
2.408000e-01
2.408000e-01
2.408000e-01
2.408000e-01
2.408000e-01
2.408000e-01
2.408000e-01
2.408000e-01
2.408000e-01
2.408000e-01
2.408000e-01
2.408000e-01
2.408000e-01
2.408000e-01
2.408000e-01
2.408000e-01
2.408000e-01
2.408000e-01
2.408000e-01
2.408000e-01
2.408000e-01
2.408000e-01
2.408000e-01
2.408000e-01
2.408000e-01
2.408000e-01
2.408000e-01
2.408000e-01
2.408000e-01
2.408000e-01
2.408000e-01
2.408000e-01
2.408000e-01
2.408000e-01
2.408000e-01
2.408000e-01
2.408000e-01
2.408000e-01
2.408000e-01
2.408000e-01
2.408000e-01
2.408000e-01
2.408000e-01
2.408000e-01
2.408000e-01
2.408000e-01
2.408000e-01
2.408000e-01
2.408000e-01
2.408000e-01
2.408000e-01
2.408000e-01
2.408000e-01
2.408000e-01
2.408000e-01
2.408000e-01
2.408000e-01
2.408000e-01
2.408000e-01
2.408000e-01
2.408000e-01
2.408000e-01
2.408000e-01
2.408000e-01
2.408000e-01
2.408000e-01
2.408000e-01
2.408000e-01
2.408000e-01
2.408000e-01
2.408000e-01
2.408000e-01
2.408000e-01
2.408000e-01
2.408000e-01
2.408000e-01
2.408000e-01
2.408000e-01
2.408000e-01
2.408000e-01
2.408000e-01
2.408000e-01
2.408000e-01
2.408000e-01
2.408000e-01
2.408000e-01
2.408000e-01
2.408000e-01
2.408000e-01
2.408000e-01
2.408000e-01
2.408000e-01
2.408000e-01
2.408000e-01
2.408000e-01
2.408000e-01
2.408000e-01
2.408000e-01
2.408000e-01
2.408000e-01
2.408000e-01
2.408000e-01
2.408000e-01
2.408000e-01
2.408000e-01
2.408000e-01
2.408000e-01
2.408000e-01
2.408000e-01
2.408000e-01
2.408000e-01
2.408000e-01
2.408000e-01
2.408000e-01
2.408000e-01
2.408000e-01
2.408000e-01
2.408000e-01
2.408000e-01
2.408000e-01
2.408000e-01
2.408000e-01
2.408000e-01
2.408000e-01
2.408000e-01
2.408000e-01
2.408000e-01
2.408000e-01
2.408000e-01
2.408000e-01
2.408000e-01
2.408000e-01
2.408000e-01
2.408000e-01
2.408000e-01
2.408000e-01
2.408000e-01
2.408000e-01
2.408000e-01
2.408000e-01
2.408000e-01
2.408000e-01
2.408000e-01
2.408000e-01
2.408000e-01
2.408000e-01
2.408000e-01
2.408000e-01
2.408000e-01
2.408000e-01
2.408000e-01
2.408000e-01
2.408000e-01
2.408000e-01
2.408000e-01
2.408000e-01
2.408000e-01
2.408000e-01
2.408000e-01
2.408000e-01
2.408000e-01
2.408000e-01
2.408000e-01
2.408000e-01
2.408000e-01
2.408000e-01
2.408000e-01
2.408000e-01
2.408000e-01
2.408000e-01
2.408000e-01
2.408000e-01
2.408000e-01
2.408000e-01
2.408000e-01
2.408000e-01
2.408000e-01
2.408000e-01
2.408000e-01
2.408000e-01
2.408000e-01
2.408000e-01
2.408000e-01
2.408000e-01
2.408000e-01
2.408000e-01
2.408000e-01
2.408000e-01
2.408000e-01
2.408000e-01
2.408000e-01
2.408000e-01
2.408000e-01
2.408000e-01
2.408000e-01
2.408000e-01
2.408000e-01
2.408000e-01
2.408000e-01
2.408000e-01
2.408000e-01
2.408000e-01
2.408000e-01
2.408000e-01
2.408000e-01
2.408000e-01
2.408000e-01
2.408000e-01
2.408000e-01
2.408000e-01
2.408000e-01
2.408000e-01
2.408000e-01
2.408000e-01
2.408000e-01
2.408000e-01
2.408000e-01
2.408000e-01
2.408000e-01
2.408000e-01
2.408000e-01
2.408000e-01
2.408000e-01
2.408000e-01
2.408000e-01
2.408000e-01
2.408000e-01
2.408000e-01
2.408000e-01
2.408000e-01
2.408000e-01
2.408000e-01
2.408000e-01
2.408000e-01
2.408000e-01
2.408000e-01
2.408000e-01
2.408000e-01
2.408000e-01
2.408000e-01
2.408000e-01
2.408000e-01
2.408000e-01
2.408000e-01
2.408000e-01
2.408000e-01
2.408000e-01
2.408000e-01
2.408000e-01
2.408000e-01
2.408000e-01
2.408000e-01
2.408000e-01
2.408000e-01
2.408000e-01
2.408000e-01
2.408000e-01
2.408000e-01
2.408000e-01
2.408000e-01
2.408000e-01
2.408000e-01
2.408000e-01
2.408000e-01
2.408000e-01
2.408000e-01
2.408000e-01
2.408000e-01
2.408000e-01
2.408000e-01
2.408000e-01
2.408000e-01
2.408000e-01
2.408000e-01
2.408000e-01
2.408000e-01
2.408000e-01
2.408000e-01
2.408000e-01
2.408000e-01
2.408000e-01
2.408000e-01
2.408000e-01
2.408000e-01
2.408000e-01
2.408000e-01
2.408000e-01
3.908000e-01
3.908000e-01
3.908000e-01
3.908000e-01
3.908000e-01
3.908000e-01
3.908000e-01
3.908000e-01
3.908000e-01
3.908000e-01
3.908000e-01
3.908000e-01
3.908000e-01
3.908000e-01
3.908000e-01
3.908000e-01
3.908000e-01
3.908000e-01
3.908000e-01
3.908000e-01
3.908000e-01
3.908000e-01
3.908000e-01
3.908000e-01
3.908000e-01
3.908000e-01
3.908000e-01
3.908000e-01
3.908000e-01
3.908000e-01
3.908000e-01
3.908000e-01
3.908000e-01
3.525853e-01
3.467270e-01
3.618711e-01
3.512835e-01
3.553272e-01
3.436901e-01
3.428112e-01
3.379961e-01
3.340017e-01
3.489248e-01
3.414014e-01
3.355206e-01
3.450986e-01
3.335729e-01
3.415090e-01
2.647119e-01
3.894618e-01
3.873427e-01
3.827821e-01
3.846863e-01
3.831890e-01
3.791725e-01
3.832369e-01
3.805401e-01
3.777870e-01
3.779155e-01
3.745438e-01
3.709677e-01
3.743891e-01
3.708142e-01
3.671984e-01
3.629755e-01
3.874797e-01
3.703213e-01
3.663587e-01
3.622771e-01
3.597950e-01
3.538831e-01
3.494746e-01
3.538667e-01
3.435534e-01
3.665401e-01
3.581961e-01
3.898599e-01
3.482545e-01
3.358737e-01
3.430281e-01
3.373818e-01
3.318405e-01
3.274270e-01
3.249502e-01
3.294711e-01
3.238884e-01
3.192239e-01
3.156123e-01
3.212299e-01
3.142837e-01
3.096146e-01
3.054955e-01
3.023102e-01
2.986135e-01
2.945972e-01
2.869615e-01
2.828689e-01
2.689391e-01
3.130734e-01
2.968141e-01
2.831855e-01
2.724381e-01
2.595102e-01
3.828748e-01
3.793585e-01
3.902833e-01
3.884496e-01
3.895284e-01
3.855293e-01
3.870358e-01
3.836612e-01
3.797045e-01
3.839151e-01
3.867354e-01
3.893295e-01
2.900801e-01
2.782322e-01
2.610798e-01
2.892399e-01
2.728081e-01
2.544747e-01
3.826827e-01
3.791940e-01
3.902073e-01
3.883294e-01
3.893946e-01
3.854449e-01
3.868660e-01
3.834716e-01
3.795135e-01
2.889479e-01
2.775283e-01
2.621306e-01
2.903403e-01
2.733847e-01
2.545179e-01
3.901587e-01
3.881926e-01
3.892224e-01
3.852490e-01
3.865735e-01
3.832090e-01
3.794783e-01
2.909444e-01
2.787089e-01
2.619853e-01
3.899915e-01
3.874656e-01
3.848909e-01
3.829462e-01
3.805726e-01
3.795597e-01
3.733158e-01
2.905419e-01
2.751345e-01
2.555048e-01
3.170253e-01
3.026739e-01
2.873665e-01
2.688588e-01
2.542930e-01
3.830985e-01
3.797358e-01
3.902349e-01
3.883888e-01
3.894015e-01
3.854961e-01
3.868979e-01
3.834220e-01
3.794869e-01
2.923603e-01
2.801402e-01
2.629476e-01
2.900266e-01
2.740399e-01
3.697785e-01
3.773181e-01
3.818230e-01
3.852030e-01
2.548718e-01
3.901689e-01
3.883358e-01
3.856821e-01
2.920808e-01
2.796788e-01
2.618574e-01
3.810625e-01
3.771815e-01
3.899607e-01
3.877497e-01
3.889604e-01
3.845562e-01
3.858799e-01
3.803070e-01
3.817147e-01
3.748395e-01
3.771159e-01
3.119973e-01
2.986090e-01
2.854706e-01
2.724842e-01
2.578697e-01
2.846201e-01
2.694418e-01
2.530668e-01
3.899237e-01
3.874968e-01
3.885862e-01
3.840300e-01
3.855688e-01
3.819356e-01
3.778798e-01
3.586635e-01
2.868558e-01
2.757200e-01
2.597994e-01
3.903055e-01
3.878383e-01
3.844374e-01
3.819388e-01
3.794409e-01
3.782225e-01
3.713392e-01
2.876821e-01
2.723437e-01
2.542308e-01
3.136343e-01
2.996735e-01
2.848449e-01
2.670555e-01
2.532872e-01
3.815484e-01
3.777982e-01
3.900249e-01
3.878598e-01
3.890678e-01
3.846670e-01
3.861276e-01
3.821493e-01
3.777877e-01
2.894227e-01
2.775486e-01
2.611134e-01
2.861346e-01
2.711177e-01
2.535308e-01
3.816058e-01
3.779195e-01
3.900179e-01
3.502273e-01
3.877558e-01
3.890125e-01
3.844333e-01
3.860973e-01
3.823500e-01
3.781094e-01
2.867501e-01
2.749205e-01
2.593755e-01
2.845587e-01
2.697122e-01
2.528263e-01
3.899460e-01
3.875346e-01
3.886067e-01
3.841614e-01
3.852258e-01
3.807772e-01
3.762903e-01
2.854199e-01
2.741540e-01
2.582846e-01
3.896887e-01
3.877794e-01
3.852560e-01
3.796331e-01
3.805472e-01
3.755267e-01
3.725341e-01
2.845761e-01
2.694236e-01
2.525516e-01
3.162421e-01
3.029302e-01
2.827718e-01
2.694398e-01
2.570518e-01
3.897728e-01
3.868029e-01
3.873660e-01
3.678249e-01
3.748230e-01
3.798663e-01
3.834488e-01
3.857002e-01
3.885973e-01
3.826799e-01
3.836856e-01
3.791242e-01
3.744421e-01
2.843873e-01
2.733617e-01
2.584082e-01
3.896642e-01
3.856271e-01
3.794265e-01
3.750923e-01
3.695063e-01
2.849010e-01
2.693640e-01
2.525696e-01
2.571902e-01
3.836618e-01
3.814125e-01
3.775441e-01
3.771632e-01
3.706026e-01
3.690922e-01
3.710388e-01
3.639669e-01
3.559412e-01
3.587603e-01
3.621377e-01
3.641294e-01
3.478469e-01
3.520037e-01
3.558214e-01
3.542301e-01
3.274000e-01
3.182509e-01
3.113254e-01
3.043618e-01
2.961902e-01
2.863803e-01
2.754636e-01
2.671242e-01
2.572233e-01
2.736289e-01
2.791251e-01
2.889641e-01
2.895851e-01
3.056959e-01
3.018343e-01
2.989148e-01
3.156178e-01
3.113462e-01
3.077546e-01
3.154450e-01
3.287876e-01
3.236552e-01
3.192812e-01
3.404588e-01
3.355448e-01
3.303428e-01
3.262588e-01
3.227080e-01
3.475022e-01
3.303316e-01
3.380346e-01
3.413945e-01
3.875613e-01
2.556825e-01
3.895418e-01
3.893927e-01
3.880820e-01
3.857848e-01
3.902130e-01
3.814073e-01
3.794419e-01
3.766992e-01
3.514831e-01
3.577049e-01
3.658883e-01
3.728317e-01
3.782168e-01
3.822008e-01
3.852282e-01
3.881125e-01
3.902857e-01
3.890853e-01
3.869711e-01
3.837422e-01
3.668201e-01
3.900633e-01
3.885081e-01
3.862365e-01
3.828787e-01
3.789666e-01
3.752436e-01
3.714483e-01
3.904584e-01
3.896354e-01
3.874539e-01
3.857707e-01
3.816195e-01
3.773319e-01
3.734389e-01
3.702918e-01
3.640144e-01
3.582183e-01
2.601456e-01
2.513963e-01
2.899583e-01
2.806985e-01
2.692967e-01
2.580544e-01
2.923259e-01
2.769652e-01
3.275275e-01
3.215506e-01
3.118800e-01
2.980572e-01
2.861274e-01
2.746940e-01
2.634564e-01
2.536700e-01
3.120885e-01
3.011160e-01
3.811428e-01
3.755967e-01
3.693683e-01
3.613348e-01
3.516211e-01
3.400534e-01
3.273800e-01
3.902096e-01
3.888317e-01
3.856947e-01
3.808818e-01
3.747087e-01
3.664438e-01
3.575654e-01
3.473346e-01
3.361344e-01
3.266191e-01
3.153557e-01
3.041000e-01
2.918033e-01
2.749319e-01
2.600283e-01
3.397987e-01
3.322150e-01
3.234351e-01
3.130207e-01
3.017721e-01
2.905646e-01
2.792233e-01
2.678892e-01
2.571429e-01
2.526955e-01
3.713477e-01
3.649375e-01
3.561089e-01
3.452305e-01
2.772127e-01
2.718566e-01
2.579050e-01
3.302600e-01
3.165792e-01
3.018251e-01
2.871086e-01
2.717853e-01
2.586393e-01
3.810785e-01
3.755575e-01
3.691097e-01
3.605757e-01
3.507723e-01
3.397487e-01
3.276246e-01
3.138252e-01
2.999436e-01
2.863881e-01
3.900996e-01
3.887163e-01
3.857031e-01
3.815023e-01
3.751566e-01
3.652847e-01
3.558592e-01
3.452417e-01
3.336569e-01
3.226765e-01
3.901039e-01
3.879208e-01
3.848050e-01
3.814261e-01
3.764866e-01