VARIABLES = "X" "Y" "Z" "FREF"
ZONE T="instant 115"
STRANDID=0, SOLUTIONTIME=0
Nodes=1235, Elements=2466
ZONETYPE=FETriangle
DATAPACKING=BLOCK
VARLOCATION = ([1-3]=NODAL, [4]=CELLCENTERED)
5.000000e-01
3.338257e-01
3.462400e-01
3.621608e-01
3.799586e-01
3.949327e-01
4.092658e-01
4.269070e-01
4.438949e-01
4.590383e-01
4.715548e-01
4.812816e-01
4.874888e-01
4.923285e-01
4.964686e-01
4.986081e-01
4.997053e-01
3.240000e-01
3.240000e-01
3.240000e-01
3.240000e-01
4.736295e-01
4.709779e-01
4.658548e-01
4.578622e-01
4.475053e-01
4.349834e-01
4.202593e-01
4.043239e-01
3.865088e-01
3.670891e-01
3.507268e-01
3.361355e-01
4.740000e-01
4.909627e-01
4.818627e-01
3.484413e-01
3.430026e-01
3.636533e-01
3.851606e-01
4.067218e-01
4.238492e-01
4.395693e-01
4.533019e-01
4.646429e-01
4.742915e-01
4.815520e-01
4.848652e-01
3.240000e-01
4.996528e-01
4.978524e-01
4.938531e-01
4.872331e-01
4.782768e-01
4.684596e-01
4.565217e-01
4.423011e-01
4.293826e-01
4.164315e-01
4.002802e-01
3.829367e-01
3.669399e-01
3.539639e-01
3.430150e-01
3.327701e-01
5.000000e-01
4.824502e-01
4.913751e-01
4.740000e-01
3.398046e-01
3.584841e-01
3.778744e-01
3.977689e-01
4.173307e-01
4.318085e-01
4.434194e-01
4.541849e-01
4.620052e-01
4.678526e-01
4.718366e-01
4.736565e-01
3.240000e-01
3.240000e-01
3.240000e-01
4.862526e-01
4.830023e-01
4.779028e-01
4.705979e-01
4.611096e-01
4.501353e-01
4.370936e-01
4.179941e-01
3.980898e-01
3.799761e-01
3.620334e-01
3.416301e-01
5.000000e-01
5.000000e-01
5.000000e-01
5.000000e-01
5.000000e-01
5.000000e-01
5.000000e-01
5.000000e-01
5.000000e-01
5.000000e-01
5.000000e-01
5.000000e-01
5.000000e-01
5.000000e-01
5.000000e-01
5.000000e-01
5.000000e-01
5.000000e-01
5.000000e-01
5.000000e-01
5.000000e-01
5.000000e-01
5.000000e-01
5.000000e-01
5.000000e-01
5.000000e-01
5.000000e-01
5.000000e-01
5.000000e-01
5.000000e-01
5.000000e-01
5.000000e-01
5.000000e-01
3.240000e-01
3.240000e-01
3.240000e-01
3.240000e-01
3.240000e-01
3.240000e-01
3.240000e-01
3.240000e-01
3.240000e-01
3.240000e-01
3.240000e-01
3.240000e-01
3.240000e-01
3.240000e-01
3.240000e-01
3.240000e-01
3.240000e-01
3.240000e-01
3.240000e-01
3.240000e-01
3.240000e-01
3.240000e-01
3.240000e-01
3.240000e-01
3.240000e-01
3.240000e-01
3.240000e-01
3.240000e-01
3.240000e-01
3.240000e-01
3.240000e-01
3.240000e-01
3.240000e-01
4.469455e-01
4.379033e-01
4.493982e-01
4.260886e-01
4.408667e-01
4.324173e-01
4.562283e-01
4.599592e-01
4.343307e-01
4.505809e-01
4.426441e-01
4.547699e-01
4.441347e-01
4.567846e-01
3.399748e-01
4.331044e-01
4.466322e-01
4.586504e-01
4.285810e-01
4.368169e-01
4.442190e-01
4.591288e-01
4.763306e-01
4.404619e-01
4.329098e-01
4.469421e-01
4.577947e-01
4.667967e-01
4.814524e-01
4.827111e-01
4.782103e-01
4.840114e-01
4.888285e-01
4.909612e-01
3.473983e-01
3.537239e-01
3.436531e-01
3.357480e-01
3.572025e-01
3.619176e-01
3.702036e-01
3.726049e-01
3.791597e-01
3.849698e-01
3.797953e-01
3.915203e-01
3.908914e-01
3.956197e-01
4.003681e-01
4.028735e-01
4.060691e-01
4.073812e-01
4.112016e-01
4.157216e-01
4.126825e-01
4.176471e-01
4.225756e-01
4.206784e-01
4.265764e-01
4.306118e-01
4.703988e-01
4.697722e-01
3.691436e-01
3.589393e-01
3.491620e-01
3.382382e-01
4.649266e-01
4.598049e-01
4.526321e-01
4.440087e-01
4.618015e-01
4.560027e-01
4.743712e-01
4.731406e-01
4.705465e-01
4.670724e-01
3.575447e-01
3.718146e-01
3.769188e-01
3.901749e-01
3.930921e-01
3.883364e-01
4.118619e-01
4.112803e-01
4.051288e-01
4.001240e-01
4.315364e-01
4.456832e-01
4.284413e-01
4.196714e-01
4.195531e-01
4.110796e-01
4.973756e-01
4.944575e-01
4.943017e-01
4.898855e-01
4.900466e-01
4.847704e-01
4.839057e-01
4.840584e-01
4.771660e-01
3.850277e-01
3.744832e-01
3.641423e-01
3.538027e-01
3.436650e-01
4.785851e-01
4.765703e-01
4.763637e-01
4.598256e-01
4.692851e-01
4.664926e-01
4.678022e-01
4.692585e-01
4.715176e-01
4.208216e-01
4.381031e-01
4.521808e-01
4.645731e-01
4.591207e-01
4.329200e-01
4.478084e-01
3.353499e-01
3.371143e-01
3.475389e-01
3.357846e-01
3.384248e-01
3.510553e-01
3.608217e-01
3.473185e-01
3.552528e-01
3.659481e-01
3.756986e-01
3.373282e-01
3.489963e-01
3.600717e-01
3.704120e-01
3.816150e-01
3.920477e-01
3.349253e-01
3.415556e-01
3.518656e-01
3.628615e-01
3.741851e-01
3.855684e-01
3.980547e-01
4.098351e-01
4.225821e-01
3.370257e-01
3.477217e-01
3.569712e-01
3.661980e-01
3.771351e-01
3.886471e-01
4.002850e-01
4.153868e-01
4.258322e-01
4.328846e-01
4.006257e-01
3.901231e-01
3.797656e-01
3.695591e-01
3.590008e-01
3.472478e-01
3.383437e-01
4.989948e-01
4.996203e-01
4.964107e-01
4.981745e-01
4.994673e-01
4.920642e-01
4.951877e-01
4.976026e-01
4.993278e-01
4.813023e-01
4.864293e-01
4.905598e-01
4.940836e-01
4.970241e-01
4.991476e-01
4.634658e-01
4.730181e-01
4.795212e-01
4.842940e-01
4.887215e-01
4.927711e-01
4.962368e-01
4.988504e-01
4.810241e-01
4.878523e-01
4.947901e-01
4.981217e-01
4.534684e-01
4.990053e-01
4.647214e-01
4.723847e-01
4.763659e-01
4.813173e-01
4.863780e-01
4.909706e-01
4.949037e-01
4.981382e-01
3.355458e-01
3.471134e-01
3.601642e-01
3.742265e-01
3.890708e-01
4.042978e-01
4.193940e-01
4.338535e-01
4.473529e-01
4.600785e-01
4.727173e-01
4.820305e-01
4.894612e-01
4.951198e-01
4.986704e-01
3.361787e-01
4.168548e-01
4.055173e-01
3.952144e-01
3.858880e-01
3.756322e-01
3.647373e-01
3.544463e-01
3.444569e-01
3.489812e-01
3.626175e-01
3.771303e-01
3.921804e-01
4.074217e-01
4.224112e-01
4.367855e-01
4.503169e-01
4.628616e-01
4.739637e-01
4.830723e-01
4.902921e-01
4.955944e-01
4.988758e-01
3.369829e-01
3.504223e-01
3.645307e-01
3.793567e-01
3.945934e-01
4.098893e-01
4.248461e-01
4.391342e-01
4.524716e-01
4.645722e-01
4.751197e-01
4.839069e-01
4.908565e-01
4.959017e-01
4.989714e-01
3.375895e-01
3.515053e-01
3.659809e-01
3.810593e-01
3.964470e-01
4.117946e-01
4.267169e-01
4.408845e-01
4.539951e-01
4.657773e-01
4.760039e-01
4.845257e-01
4.912462e-01
4.960963e-01
4.990240e-01
3.380379e-01
3.523089e-01
3.670655e-01
3.823380e-01
3.978415e-01
4.132225e-01
4.281032e-01
4.421537e-01
4.550817e-01
4.666418e-01
4.766479e-01
4.849688e-01
4.915147e-01
4.962235e-01
4.990569e-01
3.383666e-01
3.529009e-01
3.678657e-01
3.832836e-01
3.988701e-01
4.142716e-01
4.291116e-01
4.430684e-01
4.558598e-01
4.672633e-01
4.771103e-01
4.852840e-01
4.525312e-01
4.615017e-01
4.688215e-01
4.747705e-01
4.806298e-01
4.860245e-01
4.906510e-01
4.945022e-01
4.973972e-01
4.991257e-01
4.998063e-01
4.917017e-01
4.963101e-01
4.990788e-01
3.386105e-01
3.533387e-01
3.684565e-01
3.839801e-01
3.996285e-01
4.150423e-01
4.298516e-01
4.437366e-01
4.564296e-01
4.677183e-01
4.774498e-01
4.855140e-01
4.918378e-01
4.963730e-01
4.990951e-01
3.388011e-01
3.536730e-01
3.689029e-01
3.845097e-01
4.002073e-01
4.156357e-01
4.304221e-01
4.442560e-01
4.568735e-01
4.680764e-01
4.777174e-01
4.856968e-01
4.919462e-01
4.350279e-01
4.203961e-01
4.091408e-01
4.025685e-01
3.929737e-01
3.821625e-01
3.710886e-01
3.607433e-01
3.499605e-01
3.395137e-01
4.964241e-01
4.991090e-01
3.389578e-01
3.539329e-01
3.692636e-01
3.849487e-01
4.006983e-01
4.161446e-01
4.309194e-01
4.447116e-01
4.572690e-01
4.683975e-01
4.779610e-01
4.858642e-01
4.920467e-01
4.964713e-01
4.991215e-01
3.390174e-01
3.541523e-01
3.696048e-01
3.853811e-01
4.011899e-01
4.166643e-01
4.314312e-01
4.451878e-01
4.576852e-01
4.687411e-01
4.782239e-01
4.860476e-01
4.921569e-01
4.965228e-01
4.991345e-01
3.392196e-01
3.544688e-01
3.700193e-01
3.858913e-01
4.017764e-01
4.172862e-01
4.320478e-01
4.457615e-01
4.581919e-01
4.691619e-01
4.785502e-01
4.862766e-01
4.922963e-01
4.965881e-01
4.991509e-01
3.394648e-01
3.548157e-01
3.705317e-01
3.865620e-01
4.025552e-01
4.181083e-01
4.328540e-01
4.465110e-01
4.588535e-01
4.697157e-01
4.789815e-01
4.865824e-01
4.924841e-01
4.966781e-01
4.991745e-01
3.394628e-01
3.552011e-01
3.712524e-01
3.875276e-01
4.036475e-01
4.192262e-01
4.339319e-01
4.475056e-01
4.597337e-01
4.704537e-01
4.795591e-01
4.723808e-01
4.779932e-01
4.830741e-01
4.877156e-01
4.917126e-01
4.949128e-01
4.975913e-01
4.993405e-01
4.869935e-01
4.927399e-01
4.968037e-01
4.992089e-01
3.399137e-01
3.560671e-01
3.724711e-01
3.889743e-01
4.051700e-01
4.207164e-01
4.353450e-01
4.488107e-01
4.608906e-01
4.714249e-01
4.803178e-01
4.875358e-01
4.930805e-01
4.969748e-01
4.992563e-01
3.408144e-01
3.575778e-01
3.743966e-01
3.910485e-01
4.071671e-01
4.225936e-01
4.371413e-01
4.504920e-01
4.623821e-01
4.726655e-01
4.812793e-01
4.882315e-01
4.935258e-01
4.659927e-01
4.972005e-01
4.993146e-01
3.420865e-01
3.601575e-01
3.773586e-01
3.937765e-01
4.094552e-01
4.248087e-01
4.393946e-01
4.526515e-01
4.642662e-01
4.741760e-01
4.824223e-01
4.891223e-01
4.941248e-01
4.974816e-01
4.993619e-01
3.437245e-01
3.582071e-01
3.777727e-01
3.977905e-01
3.445204e-01
3.658077e-01
3.818966e-01
3.960181e-01
4.116132e-01
4.274122e-01
4.423047e-01
4.554987e-01
4.665984e-01
4.758041e-01
4.835653e-01
4.904333e-01
4.951081e-01
4.976033e-01
4.993284e-01
4.995238e-01
4.992741e-01
4.979169e-01
4.995393e-01
4.765178e-01
4.812014e-01
4.856099e-01
4.896231e-01
4.930958e-01
4.958410e-01
4.976219e-01
4.994165e-01
4.986996e-01
4.970362e-01
4.949262e-01
4.992783e-01
4.978283e-01
4.958762e-01
4.933420e-01
4.904345e-01
4.987139e-01
4.969511e-01
4.945256e-01
4.915446e-01
4.881131e-01
4.844858e-01
3.240000e-01
3.240000e-01
3.240000e-01
3.240000e-01
3.240000e-01
3.240000e-01
3.240000e-01
3.240000e-01
3.240000e-01
3.240000e-01
3.240000e-01
3.240000e-01
3.240000e-01
3.240000e-01
3.240000e-01
3.240000e-01
3.240000e-01
3.240000e-01
3.240000e-01
3.240000e-01
3.240000e-01
3.240000e-01
3.240000e-01
3.240000e-01
3.240000e-01
3.240000e-01
3.240000e-01
3.240000e-01
3.240000e-01
3.240000e-01
3.240000e-01
3.240000e-01
3.240000e-01
3.240000e-01
3.240000e-01
3.240000e-01
3.240000e-01
3.240000e-01
3.240000e-01
3.240000e-01
3.240000e-01
3.240000e-01
3.240000e-01
3.240000e-01
3.240000e-01
3.240000e-01
3.240000e-01
3.240000e-01
3.240000e-01
3.240000e-01
3.240000e-01
3.240000e-01
3.240000e-01
3.240000e-01
3.240000e-01
3.240000e-01
3.240000e-01
3.240000e-01
3.240000e-01
3.240000e-01
3.240000e-01
3.240000e-01
3.240000e-01
3.240000e-01
3.240000e-01
3.240000e-01
3.240000e-01
3.240000e-01
3.240000e-01
3.240000e-01
3.240000e-01
3.240000e-01
3.240000e-01
3.240000e-01
3.240000e-01
3.240000e-01
3.240000e-01
3.240000e-01
3.240000e-01
3.240000e-01
3.240000e-01
3.240000e-01
3.240000e-01
3.240000e-01
3.240000e-01
3.240000e-01
3.240000e-01
3.240000e-01
3.240000e-01
3.240000e-01
3.240000e-01
3.240000e-01
3.240000e-01
4.740000e-01
4.740000e-01
4.740000e-01
4.740000e-01
4.740000e-01
4.740000e-01
4.740000e-01
4.740000e-01
4.740000e-01
4.740000e-01
4.740000e-01
4.740000e-01
4.740000e-01
4.740000e-01
4.740000e-01
4.740000e-01
4.740000e-01
4.740000e-01
4.740000e-01
4.740000e-01
4.740000e-01
4.740000e-01
4.740000e-01
4.740000e-01
4.740000e-01
4.740000e-01
4.740000e-01
4.740000e-01
4.740000e-01
4.740000e-01
4.740000e-01
4.740000e-01
4.740000e-01
4.430637e-01
4.167794e-01
4.191516e-01
4.373413e-01
4.311295e-01
4.438429e-01
4.704559e-01
3.835753e-01
4.532465e-01
4.666304e-01
4.659430e-01
4.606175e-01
4.628144e-01
4.559935e-01
4.509102e-01
4.573027e-01
4.521802e-01
4.454039e-01
4.433604e-01
4.395047e-01
4.425216e-01
4.326390e-01
4.725170e-01
4.733814e-01
4.293254e-01
4.314512e-01
4.315709e-01
4.285747e-01
4.069862e-01
4.202172e-01
4.109093e-01
3.984862e-01
4.024006e-01
3.953961e-01
3.783239e-01
4.357337e-01
4.247590e-01
4.112262e-01
4.018878e-01
4.000715e-01
4.004914e-01
3.968179e-01
4.461543e-01
4.335659e-01
4.213955e-01
4.338867e-01
4.222188e-01
4.074063e-01
3.949882e-01
4.687761e-01
4.711093e-01
4.730185e-01
3.928131e-01
3.606634e-01
3.764584e-01
3.776686e-01
4.061486e-01
3.960691e-01
3.932225e-01
4.189976e-01
4.158198e-01
4.108174e-01
4.062459e-01
4.319850e-01
4.277753e-01
4.222922e-01
4.170682e-01
4.718312e-01
4.687494e-01
4.591265e-01
4.595658e-01
4.449526e-01
4.441582e-01
4.504913e-01
4.546601e-01
4.254875e-01
4.370717e-01
4.488768e-01
4.735112e-01
4.735251e-01
4.735638e-01
4.735359e-01
4.734842e-01
4.735353e-01
4.734856e-01
4.734495e-01
4.624441e-01
4.662544e-01
4.694488e-01
4.720411e-01
4.733499e-01
4.736372e-01
4.737480e-01
4.736137e-01
4.736798e-01
4.734122e-01
4.697564e-01
4.727751e-01
4.725447e-01
4.710362e-01
4.685310e-01
4.652881e-01
4.734103e-01
4.720445e-01
4.695891e-01
4.665448e-01
4.626032e-01
4.585446e-01
4.731346e-01
4.710761e-01
4.681980e-01
4.645580e-01
4.599681e-01
4.534222e-01
4.506626e-01
3.419879e-01
3.597925e-01
3.427229e-01
3.893428e-01
3.758715e-01
3.604925e-01
3.433573e-01
4.039889e-01
3.912596e-01
3.774132e-01
3.622997e-01
4.534960e-01
4.587835e-01
4.633269e-01
4.672252e-01
4.713479e-01
4.730883e-01
3.450221e-01
4.726942e-01
4.697294e-01
4.644494e-01
4.567009e-01
4.452447e-01
4.324370e-01
4.178811e-01
4.026279e-01
3.857750e-01
3.632670e-01
3.474085e-01
4.314756e-01
4.187291e-01
4.059076e-01
3.933702e-01
3.803154e-01
3.661165e-01
3.491419e-01
3.420509e-01
3.946133e-01
3.724944e-01
3.536577e-01
4.528774e-01
4.408836e-01
4.302782e-01
4.169841e-01
4.724154e-01
4.693459e-01
4.630771e-01
4.727377e-01
4.684344e-01
4.618206e-01
4.540435e-01
4.420447e-01
4.306674e-01
4.198957e-01
4.057676e-01
3.887406e-01
3.696716e-01
3.485873e-01
3.853839e-01
3.668280e-01
3.463158e-01
4.533626e-01
4.412892e-01
4.299766e-01
4.153250e-01
4.730280e-01
4.704422e-01
4.638109e-01
4.725296e-01
4.674409e-01
4.267912e-01
4.134367e-01
4.019501e-01
3.895827e-01
3.758027e-01
3.605241e-01
3.455620e-01
3.341770e-01
4.613098e-01
4.558389e-01
4.465525e-01
4.298547e-01
4.129990e-01
3.998821e-01
3.836281e-01
3.652696e-01
3.452977e-01
3.830907e-01
3.645829e-01
3.448434e-01
4.566717e-01
4.463666e-01
4.326387e-01
4.171620e-01
4.724938e-01
4.689178e-01
4.631693e-01
4.729199e-01
4.694609e-01
4.633309e-01
4.552320e-01
4.436146e-01
4.314969e-01
4.162090e-01
4.003717e-01
3.828882e-01
3.642127e-01
3.445847e-01
3.825125e-01
4.420509e-01
3.637890e-01
3.443179e-01
4.726114e-01
4.683528e-01
4.620537e-01
4.539857e-01
4.441072e-01
4.334022e-01
4.185103e-01
3.994535e-01
3.816350e-01
3.631309e-01
3.439418e-01
4.508211e-01
4.402753e-01
4.295296e-01
4.148099e-01
4.719080e-01
4.678988e-01
4.607412e-01
4.722831e-01
4.669609e-01
4.104022e-01
3.982244e-01
3.851771e-01
3.727099e-01
3.586083e-01
3.425637e-01
4.596906e-01
4.521797e-01
4.419822e-01
4.279037e-01
4.122607e-01
3.976401e-01
3.804472e-01
3.622181e-01
3.433974e-01
3.790826e-01
3.609109e-01
3.425375e-01
4.719841e-01
4.680496e-01
4.594023e-01
4.717701e-01
4.648293e-01
4.575145e-01
4.488513e-01
4.376797e-01
4.250199e-01
4.107423e-01
3.946154e-01
3.768104e-01
3.586540e-01
3.410205e-01
4.720967e-01
4.679957e-01
4.609599e-01
4.526994e-01
4.408761e-01
4.272289e-01
4.096267e-01
3.925304e-01
3.727345e-01
3.541640e-01
3.395219e-01
4.717091e-01
4.685481e-01
4.615432e-01
4.534919e-01
4.419141e-01
4.281209e-01
4.121808e-01
3.901090e-01
3.737341e-01
3.576544e-01
3.428460e-01
4.720010e-01
4.698156e-01
4.650903e-01
4.554536e-01
4.437758e-01
3.960096e-01
3.800988e-01
3.668410e-01
3.568642e-01
3.414912e-01
4.291065e-01
4.146155e-01
3.998206e-01
3.835272e-01
3.641161e-01
3.453723e-01
3.882393e-01
3.704986e-01
3.479732e-01
4.726602e-01
4.690641e-01
4.628628e-01
4.533055e-01
4.416987e-01
4.295581e-01
4.165636e-01
4.016348e-01
3.845960e-01
3.657371e-01
3.450931e-01
4.520271e-01
4.400809e-01
4.248608e-01
4.104860e-01
4.721214e-01
4.676399e-01
4.603080e-01
4.725037e-01
4.683136e-01
4.612650e-01
4.501273e-01
4.357445e-01
4.242161e-01
4.126400e-01
3.978829e-01
3.811930e-01
3.630756e-01
3.591541e-01
3.447467e-01
3.439254e-01
3.788267e-01
3.613830e-01
3.430729e-01
4.507429e-01
4.367547e-01
4.219033e-01
4.083022e-01
4.720410e-01
4.682653e-01
4.607856e-01
4.723977e-01
4.666906e-01
4.583977e-01
4.489106e-01
4.379201e-01
4.236174e-01
4.064671e-01
3.931913e-01
3.772519e-01
3.600275e-01
3.422652e-01
3.757309e-01
3.586411e-01
3.418330e-01
4.726957e-01
4.695462e-01
4.619099e-01
3.407400e-01
4.722243e-01
4.660195e-01
4.590171e-01
4.523465e-01
4.413877e-01
4.278821e-01
4.101067e-01
3.903422e-01
3.723109e-01
3.585350e-01
3.426472e-01
4.862549e-01
4.867468e-01
4.869422e-01
4.869759e-01
4.870986e-01
4.870064e-01
4.870264e-01
4.870504e-01
4.869581e-01
4.870455e-01
4.869720e-01
4.870478e-01
4.869598e-01
4.870273e-01
4.870035e-01
4.869361e-01
4.870041e-01
4.869607e-01
4.870415e-01
4.870464e-01
4.870216e-01
4.870059e-01
4.869967e-01
4.868885e-01
4.870404e-01
4.870533e-01
4.869477e-01
4.869505e-01
4.869424e-01
4.870948e-01
4.870176e-01
4.870019e-01
-4.625929e-18
3.722370e-01
3.607186e-01
3.447311e-01
3.250099e-01
3.066401e-01
2.872308e-01
2.602892e-01
2.301245e-01
1.982014e-01
1.662409e-01
1.355286e-01
1.111517e-01
8.725036e-02
5.932072e-02
3.728164e-02
1.716313e-02
3.808202e-01
3.557796e-01
3.669200e-01
3.459769e-01
1.873766e-02
5.343945e-02
8.749472e-02
1.226304e-01
1.562530e-01
1.883228e-01
2.192216e-01
2.473826e-01
2.743847e-01
2.998692e-01
3.188522e-01
3.341989e-01
2.312965e-18
0.000000e+00
0.000000e+00
3.319945e-01
3.482110e-01
3.265681e-01
2.971489e-01
2.677107e-01
2.396083e-01
2.093100e-01
1.775828e-01
1.454530e-01
1.081848e-01
7.187228e-02
3.653450e-02
3.808202e-01
1.863040e-02
4.629218e-02
7.816106e-02
1.122670e-01
1.457784e-01
1.747731e-01
2.039313e-01
2.331732e-01
2.561847e-01
2.767397e-01
2.996260e-01
3.214957e-01
3.396396e-01
3.531424e-01
3.637866e-01
3.731810e-01
-4.625929e-18
0.000000e+00
0.000000e+00
-1.619075e-17
3.304676e-01
3.101050e-01
2.861589e-01
2.577904e-01
2.247468e-01
1.954928e-01
1.674969e-01
1.356174e-01
1.059585e-01
7.609183e-02
4.523560e-02
1.804133e-02
3.459769e-01
3.670381e-01
3.556336e-01
2.619071e-02
6.146610e-02
9.326803e-02
1.250154e-01
1.560029e-01
1.855880e-01
2.145979e-01
2.487644e-01
2.801870e-01
3.042834e-01
3.254168e-01
3.474099e-01
-1.387779e-17
-1.387779e-17
-1.387779e-17
-1.387779e-17
-1.387779e-17
-1.387779e-17
-1.387779e-17
-1.387779e-17
-1.387779e-17
-1.387779e-17
-1.387779e-17
-1.387779e-17
-1.387779e-17
-1.387779e-17
-1.387779e-17
-1.387779e-17
-1.387779e-17
-1.387779e-17
-1.387779e-17
-1.387779e-17
-1.387779e-17
-1.387779e-17
-1.387779e-17
-1.387779e-17
-1.387779e-17
-1.387779e-17
-1.387779e-17
-1.387779e-17
-1.387779e-17
-1.387779e-17
-1.387779e-17
-1.387779e-17
-1.387779e-17
3.808202e-01
3.808202e-01
3.808202e-01
3.808202e-01
3.808202e-01
3.808202e-01
3.808202e-01
3.808202e-01
3.808202e-01
3.808202e-01
3.808202e-01
3.808202e-01
3.808202e-01
3.808202e-01
3.808202e-01
3.808202e-01
3.808202e-01
3.808202e-01
3.808202e-01
3.808202e-01
3.808202e-01
3.808202e-01
3.808202e-01
3.808202e-01
3.808202e-01
3.808202e-01
3.808202e-01
3.808202e-01
3.808202e-01
3.808202e-01
3.808202e-01
3.808202e-01
3.808202e-01
2.241422e-01
2.413312e-01
2.191832e-01
2.616267e-01
2.358741e-01
2.510284e-01
2.045869e-01
1.960550e-01
2.477032e-01
2.167415e-01
2.325213e-01
2.078085e-01
2.296614e-01
2.033416e-01
3.666295e-01
2.498411e-01
2.247659e-01
1.990975e-01
2.575234e-01
2.432919e-01
2.294983e-01
1.979918e-01
1.520170e-01
2.366291e-01
2.501781e-01
2.241491e-01
2.010571e-01
1.791670e-01
1.349205e-01
1.303456e-01
1.459961e-01
1.254310e-01
1.051033e-01
9.464176e-02
3.596031e-01
3.533828e-01
3.631839e-01
3.705041e-01
3.498663e-01
3.449865e-01
3.360793e-01
3.334150e-01
3.259416e-01
3.190584e-01
3.252008e-01
3.109853e-01
3.117754e-01
3.057533e-01
2.995086e-01
2.961299e-01
2.917325e-01
2.898975e-01
2.844525e-01
2.778049e-01
2.822998e-01
2.749016e-01
2.672636e-01
2.702400e-01
2.608305e-01
2.541132e-01
1.694844e-01
1.712136e-01
3.372432e-01
3.480842e-01
3.578909e-01
3.682322e-01
1.839654e-01
1.964164e-01
2.124245e-01
2.299050e-01
1.916753e-01
2.050891e-01
1.580253e-01
1.616725e-01
1.690739e-01
1.784471e-01
3.495165e-01
3.342961e-01
3.285303e-01
3.126716e-01
3.089962e-01
3.149521e-01
2.834956e-01
2.843388e-01
2.930370e-01
2.998346e-01
2.525397e-01
2.266418e-01
2.577558e-01
2.718013e-01
2.719838e-01
2.846288e-01
5.116135e-02
7.424168e-02
7.527186e-02
1.000608e-01
9.926876e-02
1.224650e-01
1.258383e-01
1.252497e-01
1.493740e-01
3.189885e-01
3.313040e-01
3.426374e-01
3.533039e-01
3.631726e-01
1.447630e-01
1.512637e-01
1.519133e-01
1.963681e-01
1.725442e-01
1.799573e-01
1.765250e-01
1.726164e-01
1.663465e-01
2.700170e-01
2.409682e-01
2.133836e-01
1.848563e-01
1.980105e-01
2.501605e-01
2.224132e-01
3.708645e-01
3.692613e-01
3.594673e-01
3.704709e-01
3.680606e-01
3.560340e-01
3.461325e-01
3.596802e-01
3.518458e-01
3.407080e-01
3.299251e-01
3.690660e-01
3.580525e-01
3.469126e-01
3.358495e-01
3.230634e-01
3.103202e-01
3.712480e-01
3.651572e-01
3.552331e-01
3.439935e-01
3.316406e-01
3.183348e-01
3.025764e-01
2.864178e-01
2.672534e-01
3.693423e-01
3.592904e-01
3.501023e-01
3.404394e-01
3.282820e-01
3.145687e-01
2.996197e-01
2.783052e-01
2.620438e-01
2.502218e-01
2.991640e-01
3.127362e-01
3.252355e-01
3.367879e-01
3.480207e-01
3.597485e-01
3.681353e-01
3.168850e-02
1.948293e-02
5.980301e-02
4.268680e-02
2.307522e-02
8.872871e-02
6.920332e-02
4.890434e-02
2.591856e-02
1.354552e-01
1.157002e-01
9.670114e-02
7.669017e-02
5.447065e-02
2.918411e-02
1.876151e-01
1.620305e-01
1.416313e-01
1.243356e-01
1.055995e-01
8.471526e-02
6.122899e-02
3.388582e-02
1.364397e-01
1.095453e-01
7.199170e-02
4.329864e-02
2.106333e-01
3.152373e-02
1.844831e-01
1.638680e-01
1.519064e-01
1.354019e-01
1.159156e-01
9.459294e-02
7.120598e-02
4.310786e-02
3.706872e-01
3.598781e-01
3.468166e-01
3.315940e-01
3.140444e-01
2.941825e-01
2.722291e-01
2.485380e-01
2.233279e-01
1.957749e-01
1.629060e-01
1.328406e-01
1.021163e-01
6.968753e-02
3.643933e-02
3.701133e-01
2.761015e-01
2.924990e-01
3.062770e-01
3.179472e-01
3.300007e-01
3.420039e-01
3.526583e-01
3.624216e-01
3.580672e-01
3.442508e-01
3.282876e-01
3.101525e-01
2.898405e-01
2.675235e-01
2.433483e-01
2.172894e-01
1.891009e-01
1.592431e-01
1.290005e-01
9.804933e-02
6.622803e-02
3.351007e-02
3.693813e-01
3.566570e-01
3.422242e-01
3.257123e-01
3.070767e-01
2.863403e-01
2.636396e-01
2.390841e-01
2.127661e-01
1.848584e-01
1.557602e-01
1.258338e-01
9.518359e-02
6.388665e-02
3.205585e-02
3.688270e-01
3.555897e-01
3.406729e-01
3.237188e-01
3.046798e-01
2.835934e-01
2.606007e-01
2.358408e-01
2.094958e-01
1.818009e-01
1.530368e-01
1.234293e-01
9.315139e-02
6.235740e-02
3.122644e-02
3.684160e-01
3.547935e-01
3.395039e-01
3.222074e-01
3.028567e-01
2.815088e-01
2.583170e-01
2.334526e-01
2.071247e-01
1.795701e-01
1.510190e-01
1.216770e-01
9.172403e-02
6.133681e-02
3.069620e-02
3.681142e-01
3.542047e-01
3.386367e-01
3.210821e-01
3.015007e-01
2.799626e-01
2.566384e-01
2.317118e-01
2.054065e-01
1.779468e-01
1.495517e-01
1.204138e-01
2.126393e-01
1.923959e-01
1.737999e-01
1.568216e-01
1.378222e-01
1.173890e-01
9.623709e-02
7.394273e-02
5.095117e-02
2.955607e-02
1.391503e-02
9.071643e-02
6.063210e-02
3.033667e-02
3.678898e-01
3.537679e-01
3.379938e-01
3.202487e-01
3.004947e-01
2.788187e-01
2.553970e-01
2.304296e-01
2.041372e-01
1.767472e-01
1.484644e-01
1.194828e-01
8.997568e-02
6.011537e-02
3.006797e-02
3.677143e-01
3.534337e-01
3.375065e-01
3.196127e-01
2.997234e-01
2.779334e-01
2.544343e-01
2.294267e-01
2.031417e-01
1.757968e-01
1.476012e-01
1.187375e-01
8.938078e-02
2.464766e-01
2.706790e-01
2.874088e-01
2.965445e-01
3.091467e-01
3.224157e-01
3.351018e-01
3.462142e-01
3.571101e-01
3.670565e-01
5.969149e-02
2.983601e-02
3.675699e-01
3.531735e-01
3.371119e-01
3.190838e-01
2.990667e-01
2.771709e-01
2.535912e-01
2.285423e-01
2.022499e-01
1.749394e-01
1.468103e-01
1.180507e-01
8.882605e-02
5.929812e-02
2.962699e-02
3.675149e-01
3.529535e-01
3.367377e-01
3.185614e-01
2.984068e-01
2.763890e-01
2.527195e-01
2.276134e-01
2.013065e-01
1.740165e-01
1.459517e-01
1.172935e-01
8.821320e-02
5.886534e-02
2.940742e-02
3.673282e-01
3.526356e-01
3.362822e-01
3.179432e-01
2.976168e-01
2.754492e-01
2.516639e-01
2.264877e-01
2.001504e-01
1.728789e-01
1.448782e-01
1.163403e-01
8.743208e-02
5.831204e-02
2.912660e-02
3.671017e-01
3.522866e-01
3.357175e-01
3.171274e-01
2.965625e-01
2.741996e-01
2.502747e-01
2.250066e-01
1.986290e-01
1.713686e-01
1.434459e-01
1.150545e-01
8.636763e-02
5.753980e-02
2.871914e-02
3.671036e-01
3.518980e-01
3.349204e-01
3.159467e-01
2.950741e-01
2.724874e-01
2.484010e-01
2.230219e-01
1.965831e-01
1.693319e-01
1.415028e-01
1.638792e-01
1.467056e-01
1.289937e-01
1.101522e-01
9.065728e-02
7.114264e-02
4.901953e-02
2.567193e-02
1.133018e-01
8.489654e-02
5.644503e-02
2.811454e-02
3.666861e-01
3.510216e-01
3.335645e-01
3.141640e-01
2.929800e-01
2.701809e-01
2.459161e-01
2.203836e-01
1.938553e-01
1.666092e-01
1.389059e-01
1.109452e-01
8.289501e-02
5.491863e-02
2.726125e-02
3.658491e-01
3.494827e-01
3.314018e-01
3.115783e-01
2.901981e-01
2.672352e-01
2.427086e-01
2.169262e-01
1.902702e-01
1.630563e-01
1.355368e-01
1.078423e-01
8.020159e-02
1.812479e-01
5.283604e-02
2.617114e-02
3.646599e-01
3.468235e-01
3.280251e-01
3.081235e-01
2.869607e-01
2.636997e-01
2.386050e-01
2.123832e-01
1.856257e-01
1.586099e-01
1.314104e-01
1.037273e-01
7.642449e-02
5.012000e-02
2.525177e-02
3.631163e-01
3.488376e-01
3.275481e-01
3.029236e-01
3.623612e-01
3.408588e-01
3.227306e-01
3.052371e-01
2.838566e-01
2.594587e-01
2.331664e-01
2.062061e-01
1.796828e-01
1.536571e-01
1.271402e-01
9.734037e-02
6.977118e-02
4.889699e-02
2.590558e-02
2.181570e-02
2.693363e-02
4.559384e-02
2.145988e-02
1.514292e-01
1.358133e-01
1.190925e-01
1.013373e-01
8.280406e-02
6.435570e-02
4.870729e-02
2.414867e-02
3.603819e-02
5.436001e-02
7.104991e-02
2.685469e-02
4.655047e-02
6.408412e-02
8.132422e-02
9.733455e-02
3.583948e-02
5.513266e-02
7.378618e-02
9.156383e-02
1.083771e-01
1.235859e-01
3.459769e-01
3.459769e-01
3.459769e-01
3.459769e-01
3.459769e-01
3.459769e-01
3.459769e-01
3.459769e-01
3.459769e-01
3.459769e-01
3.459769e-01
3.459769e-01
3.459769e-01
3.459769e-01
3.459769e-01
3.459769e-01
3.459769e-01
3.459769e-01
3.459769e-01
3.459769e-01
3.459769e-01
3.459769e-01
3.459769e-01
3.459769e-01
3.459769e-01
3.459769e-01
3.459769e-01
3.459769e-01
3.459769e-01
3.459769e-01
3.459769e-01
3.459769e-01
3.459769e-01
3.574329e-01
3.692017e-01
3.636476e-01
3.574640e-01
3.692943e-01
3.575190e-01
3.693162e-01
3.575246e-01
3.693156e-01
3.575219e-01
3.693101e-01
3.634645e-01
3.622409e-01
3.575338e-01
3.694394e-01
3.574494e-01
3.694130e-01
3.574136e-01
3.691618e-01
3.669813e-01
3.573418e-01
3.689538e-01
3.575843e-01
3.694277e-01
3.573768e-01
3.686656e-01
3.573654e-01
3.701450e-01
3.573427e-01
3.690788e-01
3.575555e-01
3.693244e-01
3.574204e-01
3.692006e-01
3.575108e-01
3.693131e-01
3.575218e-01
3.693166e-01
3.575290e-01
3.693125e-01
3.575319e-01
3.692981e-01
3.580718e-01
3.706664e-01
3.570415e-01
3.687412e-01
3.580819e-01
3.705017e-01
3.572622e-01
3.695805e-01
3.568163e-01
3.690369e-01
3.694790e-01
3.575119e-01
3.581063e-01
3.697771e-01
3.575812e-01
3.693897e-01
3.574794e-01
3.694207e-01
6.938894e-18
6.938894e-18
6.938894e-18
6.938894e-18
6.938894e-18
6.938894e-18
6.938894e-18
6.938894e-18
6.938894e-18
6.938894e-18
6.938894e-18
6.938894e-18
6.938894e-18
6.938894e-18
6.938894e-18
6.938894e-18
6.938894e-18
6.938894e-18
6.938894e-18
6.938894e-18
6.938894e-18
6.938894e-18
6.938894e-18
6.938894e-18
6.938894e-18
6.938894e-18
6.938894e-18
6.938894e-18
6.938894e-18
6.938894e-18
6.938894e-18
6.938894e-18
6.938894e-18
1.684357e-01
2.257674e-01
2.213322e-01
1.827802e-01
1.969856e-01
1.663715e-01
5.785502e-02
2.784709e-01
1.387213e-01
8.325887e-02
8.702360e-02
1.118368e-01
1.023660e-01
1.294062e-01
1.461369e-01
1.247007e-01
1.421587e-01
1.621462e-01
1.676531e-01
1.775151e-01
1.698548e-01
1.936480e-01
3.746630e-02
2.420781e-02
2.008872e-01
1.962800e-01
1.960166e-01
2.024839e-01
2.429778e-01
2.193023e-01
2.362828e-01
2.566803e-01
2.504991e-01
2.614152e-01
2.855644e-01
1.865801e-01
2.103706e-01
2.357308e-01
2.513209e-01
2.542023e-01
2.535402e-01
2.592519e-01
1.600697e-01
1.915637e-01
2.170296e-01
1.908358e-01
2.154235e-01
2.422728e-01
2.620312e-01
7.017827e-02
5.226856e-02
3.048771e-02
2.652808e-01
3.075677e-01
2.880192e-01
2.864305e-01
2.443753e-01
2.603944e-01
2.646734e-01
2.216236e-01
2.275300e-01
2.364426e-01
2.442136e-01
1.951024e-01
2.041672e-01
2.152796e-01
2.252335e-01
4.529108e-02
7.035647e-02
1.178085e-01
1.160829e-01
1.633806e-01
1.655280e-01
1.474232e-01
1.340157e-01
2.088933e-01
1.834240e-01
1.522683e-01
2.152072e-02
2.121170e-02
2.033080e-02
2.096943e-02
2.210645e-02
2.098468e-02
2.207621e-02
2.283872e-02
1.040263e-01
8.533977e-02
6.552749e-02
4.304923e-02
2.481633e-02
1.854296e-02
1.545451e-02
1.913189e-02
1.741854e-02
2.359928e-02
6.328437e-02
3.405402e-02
3.711453e-02
5.292353e-02
7.179612e-02
9.045987e-02
2.363618e-02
4.301125e-02
6.451387e-02
8.373741e-02
1.033163e-01
1.200536e-01
2.863000e-02
5.256694e-02
7.393688e-02
9.413761e-02
1.144787e-01
1.381458e-01
1.468988e-01
3.282077e-01
3.085861e-01
3.274401e-01
2.703483e-01
2.887847e-01
3.077681e-01
3.267747e-01
2.479294e-01
2.675666e-01
2.867669e-01
3.056386e-01
1.379034e-01
1.191374e-01
1.000208e-01
7.985351e-02
5.007110e-02
2.938463e-02
3.250166e-01
3.515949e-02
6.348467e-02
9.467171e-02
1.268870e-01
1.625828e-01
1.940985e-01
2.237216e-01
2.501335e-01
2.754154e-01
3.044883e-01
3.224645e-01
1.962265e-01
2.221305e-01
2.447755e-01
2.644539e-01
2.829067e-01
3.010560e-01
3.205868e-01
3.281420e-01
2.625955e-01
2.931278e-01
3.155982e-01
1.399215e-01
1.740623e-01
1.988384e-01
2.253892e-01
3.872611e-02
6.625999e-02
1.011713e-01
3.456962e-02
7.242383e-02
1.067600e-01
1.360900e-01
1.710921e-01
1.979939e-01
2.199172e-01
2.450075e-01
2.712135e-01
2.966798e-01
3.211898e-01
2.759625e-01
3.001886e-01
3.236377e-01
1.383415e-01
1.730314e-01
1.994897e-01
2.284318e-01
3.033943e-02
5.796696e-02
9.775221e-02
3.730608e-02
7.858109e-02
2.062165e-01
2.318320e-01
2.512213e-01
2.700024e-01
2.888742e-01
3.077311e-01
3.244425e-01
3.361573e-01
1.089462e-01
1.299497e-01
1.589557e-01
1.997521e-01
2.326109e-01
2.545001e-01
2.783980e-01
3.020829e-01
3.247238e-01
2.791371e-01
3.029114e-01
3.252062e-01
1.269921e-01
1.594769e-01
1.936486e-01
2.250597e-01
3.775748e-02
6.922519e-02
1.007480e-01
3.198083e-02
6.544087e-02
1.000023e-01
1.320598e-01
1.669792e-01
1.961795e-01
2.268173e-01
2.537293e-01
2.794148e-01
3.033564e-01
3.254802e-01
2.799289e-01
1.710759e-01
3.038644e-01
3.257625e-01
3.625580e-02
7.294950e-02
1.057468e-01
1.362826e-01
1.656648e-01
1.919338e-01
2.225425e-01
2.551724e-01
2.811241e-01
3.046505e-01
3.261596e-01
1.464117e-01
1.755951e-01
2.004502e-01
2.293659e-01