VARIABLES = "X" "Y" "Z" "FREF"
ZONE T="instant 014"
STRANDID=0, SOLUTIONTIME=0
Nodes=3151, Elements=6298
ZONETYPE=FETriangle
DATAPACKING=BLOCK
VARLOCATION = ([1-3]=NODAL, [4]=CELLCENTERED)
5.000000e-01
7.875987e-02
1.010246e-01
1.225633e-01
1.432761e-01
1.674309e-01
1.933537e-01
2.204832e-01
2.485747e-01
2.770470e-01
3.052634e-01
3.321224e-01
3.573001e-01
3.813626e-01
4.032106e-01
4.219454e-01
4.373507e-01
4.490833e-01
4.596092e-01
4.701598e-01
4.792767e-01
4.865756e-01
4.920321e-01
4.959869e-01
4.984687e-01
4.997084e-01
6.140000e-02
6.140000e-02
6.140000e-02
6.140000e-02
6.140000e-02
6.140000e-02
6.140000e-02
6.140000e-02
6.140000e-02
6.140000e-02
6.140000e-02
6.140000e-02
2.109119e-01
2.096110e-01
2.070100e-01
2.031437e-01
1.985428e-01
1.942612e-01
1.888418e-01
1.820116e-01
1.744713e-01
1.669269e-01
1.587348e-01
1.492557e-01
1.406183e-01
1.320018e-01
1.231648e-01
1.119804e-01
1.012422e-01
9.274080e-02
8.294219e-02
7.226123e-02
2.114000e-01
4.770219e-01
4.462188e-01
4.203239e-01
3.936938e-01
3.596820e-01
3.267072e-01
2.992050e-01
2.735297e-01
2.480904e-01
2.270099e-01
2.874526e-01
1.106935e-01
9.781294e-02
3.002819e-01
2.792838e-01
1.123107e-01
1.251750e-01
1.038675e-01
1.306852e-01
8.405860e-02
1.346998e-01
1.179137e-01
1.403713e-01
1.559110e-01
4.792313e-01
1.747331e-01
1.972785e-01
1.650943e-01
1.797001e-01
2.134817e-01
2.367543e-01
2.728401e-01
2.520964e-01
2.615864e-01
2.873011e-01
3.167155e-01
2.910998e-01
4.697539e-01
4.541203e-01
3.064480e-01
3.354138e-01
3.296951e-01
3.556926e-01
3.571186e-01
3.689019e-01
2.271117e-01
2.649923e-01
2.467828e-01
2.229314e-01
1.037500e-01
8.736385e-02
7.933651e-02
8.138874e-02
8.164625e-02
1.015927e-01
1.218373e-01
8.252450e-02
1.029402e-01
1.238726e-01
1.454684e-01
7.290446e-02
8.659605e-02
1.049114e-01
1.259191e-01
4.748750e-01
1.473505e-01
1.700173e-01
1.713508e-01
1.952868e-01
1.746412e-01
1.948756e-01
2.206446e-01
8.209487e-02
1.039549e-01
1.265298e-01
1.505540e-01
1.350136e-01
1.343706e-01
1.474836e-01
1.620555e-01
1.920784e-01
2.127717e-01
2.265079e-01
2.458113e-01
7.983064e-02
1.002671e-01
1.230353e-01
1.490830e-01
1.714725e-01
1.909019e-01
2.141136e-01
1.903146e-01
2.086116e-01
2.163070e-01
2.345435e-01
2.538171e-01
2.773438e-01
1.542409e-01
1.724779e-01
1.928318e-01
2.357332e-01
4.668376e-01
4.508658e-01
4.368244e-01
4.201663e-01
2.575243e-01
2.797146e-01
3.046922e-01
1.589766e-01
2.134952e-01
2.352594e-01
2.594993e-01
2.809402e-01
3.040454e-01
3.297202e-01
1.770721e-01
1.977466e-01
2.224829e-01
2.366485e-01
2.595933e-01
2.870598e-01
4.583965e-01
4.396085e-01
4.225175e-01
4.052194e-01
3.849247e-01
3.031621e-01
3.262548e-01
3.527038e-01
2.536855e-01
2.812666e-01
3.182198e-01
3.456734e-01
3.737009e-01
1.785349e-01
1.982697e-01
2.208598e-01
2.469500e-01
3.091038e-01
3.374138e-01
3.651288e-01
3.931755e-01
2.753802e-01
3.033442e-01
3.300999e-01
3.574171e-01
3.840047e-01
4.111535e-01
3.883759e-01
4.090991e-01
1.959635e-01
2.176944e-01
2.419327e-01
2.692677e-01
2.991219e-01
3.274322e-01
3.501127e-01
3.781892e-01
4.019998e-01
4.284112e-01
3.124591e-01
3.276354e-01
4.491646e-01
4.293468e-01
4.109628e-01
3.931953e-01
3.747696e-01
3.556986e-01
3.366482e-01
3.455667e-01
3.643057e-01
3.822548e-01
3.996561e-01
4.189908e-01
4.391087e-01
6.140000e-02
4.995944e-01
4.976007e-01
4.940901e-01
4.890281e-01
4.810808e-01
4.716954e-01
4.599370e-01
4.457020e-01
4.275619e-01
4.075404e-01
3.887106e-01
3.675761e-01
3.433070e-01
3.178809e-01
2.958481e-01
2.765457e-01
2.565479e-01
2.329161e-01
2.073447e-01
1.820329e-01
1.575389e-01
1.340962e-01
1.122909e-01
9.251307e-02
7.533263e-02
5.000000e-01
2.266825e-01
2.478529e-01
2.747518e-01
3.051362e-01
3.341283e-01
3.623248e-01
3.900588e-01
4.208160e-01
4.535047e-01
4.804147e-01
2.114000e-01
7.078194e-02
8.018332e-02
9.120182e-02
1.031068e-01
1.139868e-01
1.241270e-01
1.343933e-01
1.443117e-01
1.531804e-01
1.602922e-01
1.685596e-01
1.760857e-01
1.823034e-01
1.875453e-01
1.924938e-01
1.981891e-01
2.026370e-01
2.053719e-01
2.076712e-01
2.096697e-01
2.109871e-01
6.140000e-02
6.140000e-02
6.140000e-02
6.140000e-02
6.140000e-02
6.140000e-02
6.140000e-02
6.140000e-02
6.140000e-02
6.140000e-02
6.140000e-02
2.776310e-01
3.280075e-01
1.066441e-01
1.384266e-01
1.333568e-01
2.297447e-01
2.417332e-01
2.568111e-01
2.611151e-01
2.886485e-01
2.900746e-01
3.012291e-01
2.830887e-01
3.795689e-01
7.894998e-02
3.495574e-01
3.220833e-01
3.602277e-01
3.009338e-01
3.461295e-01
3.265619e-01
3.715489e-01
3.533829e-01
8.371961e-02
1.256785e-01
1.080560e-01
9.842926e-02
8.424518e-02
1.262524e-01
1.608000e-01
1.277863e-01
1.674431e-01
1.549804e-01
1.881645e-01
1.733486e-01
2.060857e-01
2.275760e-01
8.434121e-02
2.287850e-01
8.112905e-02
9.007548e-02
1.046781e-01
2.188985e-01
2.389034e-01
2.584715e-01
4.708373e-01
4.398359e-01
4.568550e-01
4.702737e-01
3.965277e-01
4.111056e-01
4.256545e-01
4.408300e-01
1.188263e-01
1.042142e-01
8.248168e-02
4.592496e-01
3.949840e-01
4.091612e-01
4.247483e-01
4.504834e-01
3.758226e-01
3.822028e-01
4.239836e-01
4.383958e-01
2.238533e-01
2.367322e-01
2.541082e-01
3.615409e-01
3.831404e-01
4.162403e-01
3.185453e-01
3.516295e-01
3.636325e-01
3.779165e-01
3.904129e-01
3.991263e-01
4.066176e-01
2.051951e-01
2.744610e-01
3.028926e-01
3.368589e-01
3.552571e-01
3.788507e-01
4.042010e-01
2.127182e-01
2.260686e-01
2.433594e-01
3.254250e-01
3.475858e-01
1.408735e-01
1.258350e-01
3.683265e-01
3.889928e-01
1.896142e-01
2.649816e-01
2.911091e-01
3.210730e-01
3.366212e-01
3.543359e-01
3.717889e-01
1.986172e-01
2.122910e-01
2.295670e-01
3.055918e-01
3.227347e-01
3.379065e-01
3.529686e-01
2.491385e-01
1.633278e-01
1.450275e-01
1.247574e-01
1.038609e-01
8.273866e-02
2.693879e-01
2.956066e-01
3.064548e-01
3.194896e-01
3.322875e-01
1.701687e-01
1.809980e-01
1.965779e-01
2.131658e-01
2.755242e-01
2.876436e-01
2.998921e-01
3.103520e-01
2.285735e-01
2.426974e-01
2.558288e-01
2.695053e-01
2.802297e-01
2.877571e-01
8.392576e-02
1.072697e-01
1.379499e-01
1.629664e-01
1.876082e-01
2.122660e-01
2.356358e-01
1.483388e-01
1.598015e-01
1.839416e-01
1.930962e-01
2.068340e-01
2.226296e-01
2.386641e-01
2.545198e-01
2.582537e-01
2.631354e-01
1.869872e-01
1.673681e-01
1.479075e-01
1.281520e-01
1.070590e-01
8.402491e-02
1.944679e-01
2.135851e-01
2.356609e-01
1.544188e-01
1.721097e-01
1.906405e-01
2.112924e-01
5.000000e-01
5.000000e-01
5.000000e-01
5.000000e-01
5.000000e-01
5.000000e-01
5.000000e-01
5.000000e-01
5.000000e-01
5.000000e-01
5.000000e-01
5.000000e-01
5.000000e-01
5.000000e-01
5.000000e-01
5.000000e-01
5.000000e-01
5.000000e-01
5.000000e-01
5.000000e-01
5.000000e-01
5.000000e-01
5.000000e-01
5.000000e-01
5.000000e-01
5.000000e-01
5.000000e-01
5.000000e-01
5.000000e-01
5.000000e-01
5.000000e-01
5.000000e-01
5.000000e-01
6.140000e-02
6.140000e-02
6.140000e-02
6.140000e-02
6.140000e-02
6.140000e-02
6.140000e-02
6.140000e-02
6.140000e-02
6.140000e-02
6.140000e-02
6.140000e-02
6.140000e-02
6.140000e-02
6.140000e-02
6.140000e-02
6.140000e-02
6.140000e-02
6.140000e-02
6.140000e-02
6.140000e-02
6.140000e-02
6.140000e-02
6.140000e-02
6.140000e-02
6.140000e-02
6.140000e-02
6.140000e-02
6.140000e-02
6.140000e-02
6.140000e-02
6.140000e-02
6.140000e-02
3.376741e-01
3.529580e-01
3.457354e-01
3.602372e-01
3.749669e-01
3.835825e-01
3.574008e-01
3.690242e-01
2.854138e-01
2.999146e-01
3.112644e-01
3.130657e-01
3.235880e-01
3.314779e-01
3.407009e-01
3.734278e-01
3.509000e-01
3.383982e-01
3.606153e-01
3.820081e-01
3.266124e-01
3.271201e-01
8.681663e-02
7.662594e-02
3.466281e-01
3.684098e-01
3.895395e-01
3.661367e-01
3.805760e-01
3.947404e-01
3.858543e-01
3.988516e-01
4.035148e-01
4.282251e-01
3.658488e-01
3.819468e-01
3.571415e-01
3.900238e-01
3.685997e-01
3.464084e-01
3.974364e-01
3.765439e-01
3.575560e-01
3.378747e-01
3.957645e-01
4.112600e-01
4.070526e-01
3.912082e-01
3.786539e-01
1.086441e-01
9.523746e-02
8.041872e-02
3.296182e-01
3.445854e-01
3.572149e-01
3.190175e-01
3.332521e-01
3.080494e-01
7.896336e-02
9.291037e-02
9.685664e-02
1.117553e-01
1.168356e-01
1.292678e-01
1.336609e-01
1.388735e-01
1.397021e-01
1.497848e-01
1.565328e-01
1.624366e-01
1.635972e-01
1.731346e-01
1.806034e-01
1.869754e-01
1.790089e-01
1.890953e-01
1.979652e-01
2.054995e-01
2.120252e-01
1.958229e-01
2.055036e-01
2.149077e-01
2.233360e-01
2.306634e-01
2.370886e-01
2.111928e-01
1.308184e-01
1.166956e-01
1.021325e-01
8.761739e-02
7.789810e-02
2.216467e-01
2.315502e-01
2.406332e-01
2.486615e-01
2.555708e-01
2.616756e-01
2.362753e-01
2.474016e-01
2.572872e-01
2.660135e-01
2.735915e-01
2.797200e-01
2.852942e-01
2.504170e-01
2.621891e-01
2.731675e-01
2.825631e-01
2.908073e-01
2.981328e-01
3.023410e-01
3.074597e-01
2.632801e-01
2.756726e-01
2.877406e-01
2.989220e-01
3.066898e-01
3.148130e-01
3.241307e-01
3.211542e-01
3.288909e-01
3.430211e-01
3.987467e-01
3.160468e-01
3.361489e-01
3.588537e-01
1.541412e-01
1.397973e-01
1.249998e-01
1.105344e-01
9.770143e-02
8.577251e-02
3.817036e-01
3.025306e-01
3.250541e-01
3.489333e-01
3.723363e-01
3.917410e-01
4.084604e-01
3.498268e-01
3.638887e-01
3.700108e-01
3.786534e-01
3.857507e-01
3.940276e-01
4.023254e-01
4.105276e-01
4.112963e-01
4.150407e-01
4.190921e-01
4.226836e-01
4.258794e-01
4.294496e-01
3.930923e-01
4.042950e-01
4.129721e-01
4.211760e-01
4.291098e-01
4.352508e-01
4.390320e-01
4.086095e-01
4.138330e-01
4.217634e-01
4.308491e-01
4.380146e-01
4.433237e-01
4.476376e-01
4.249196e-01
4.399648e-01
4.382008e-01
4.486996e-01
4.515756e-01
4.555124e-01
4.596034e-01
4.629055e-01
4.379964e-01
4.543742e-01
4.635292e-01
4.692792e-01
4.505712e-01
4.640946e-01
4.699265e-01
4.747616e-01
4.707890e-01
4.804178e-01
1.790819e-01
1.642295e-01
1.490550e-01
1.340035e-01
1.196112e-01
1.056833e-01
9.026071e-02
7.900814e-02
4.774164e-01
4.856615e-01
4.799024e-01
4.866932e-01
4.935812e-01
4.976832e-01
4.946936e-01
4.907236e-01
4.902970e-01
4.859306e-01
4.842617e-01
4.849568e-01
4.768090e-01
4.775890e-01
4.787106e-01
4.801724e-01
4.680951e-01
4.686518e-01
4.698546e-01
4.715101e-01
4.734904e-01
4.580699e-01
4.593160e-01
4.611727e-01
4.634586e-01
4.660061e-01
4.547355e-01
4.578642e-01
4.454884e-01
4.470076e-01
4.490858e-01
4.517305e-01
4.312783e-01
4.329032e-01
4.351399e-01
4.381716e-01
4.418064e-01
4.455727e-01
4.491466e-01
4.161565e-01
4.171950e-01
4.192379e-01
4.225380e-01
4.269403e-01
4.319136e-01
4.361187e-01
4.396332e-01
3.821724e-01
3.825349e-01
4.002062e-01
4.013867e-01
4.043921e-01
4.097522e-01
4.159995e-01
4.232591e-01
4.247314e-01
4.294948e-01
3.803356e-01
3.963274e-01
3.681935e-01
1.246950e-01
1.574489e-01
1.377536e-01
1.629417e-01
1.524040e-01
1.889435e-01
1.800207e-01
1.690200e-01
2.231254e-01
2.085414e-01
2.052314e-01
1.897251e-01
1.741225e-01
1.585826e-01
1.432912e-01
1.283006e-01
1.133877e-01
9.960014e-02
8.681136e-02
1.969577e-01
1.857586e-01
2.523679e-01
2.384872e-01
2.254106e-01
2.135709e-01
2.023818e-01
2.677024e-01
2.540311e-01
2.415208e-01
2.298933e-01
2.188448e-01
2.960766e-01
2.819846e-01
2.691429e-01
2.572441e-01
2.459897e-01
2.351368e-01
3.226588e-01
3.088122e-01
2.959082e-01
2.839929e-01
2.727715e-01
2.619214e-01
2.512325e-01
3.464699e-01
3.343837e-01
3.214438e-01
3.097019e-01
2.987826e-01
2.882535e-01
2.776997e-01
2.670398e-01
3.656664e-01
3.606556e-01
3.453920e-01
3.340307e-01
3.235325e-01
3.137978e-01
3.037883e-01
2.931837e-01
2.823581e-01
4.207612e-01
4.068819e-01
3.895832e-01
3.697601e-01
3.467925e-01
3.220352e-01
2.968793e-01
4.021521e-01
3.837078e-01
3.621400e-01
3.351183e-01
3.101082e-01
7.893374e-02
7.805413e-02
8.139087e-02
9.847595e-02
9.390554e-02
1.050418e-01
1.198624e-01
7.977904e-02
9.656756e-02
1.123689e-01
1.270525e-01
1.425657e-01
8.198169e-02
9.996141e-02
1.171522e-01
1.337484e-01
1.501757e-01
1.665425e-01
2.321414e-01
2.159244e-01
1.999014e-01
1.840074e-01
1.682428e-01
1.526039e-01
1.371119e-01
1.220365e-01
1.073043e-01
9.138613e-02
7.890455e-02
7.669028e-02
8.766401e-02
1.043437e-01
1.219457e-01
1.395477e-01
1.570582e-01
1.744818e-01
1.915628e-01
7.509326e-02
8.006644e-02
9.546512e-02
1.103157e-01
1.272550e-01
1.451180e-01
1.632889e-01
1.814967e-01
1.996833e-01
2.175724e-01
8.529545e-02
1.006193e-01
1.166585e-01
1.331146e-01
1.506975e-01
1.690681e-01
1.877608e-01
2.065087e-01
2.253903e-01
2.454007e-01
2.667557e-01
7.698647e-02
9.144843e-02
1.058249e-01
1.223090e-01
1.392497e-01
1.563360e-01
1.743983e-01
1.933801e-01
2.124723e-01
2.314470e-01
2.504138e-01
2.693535e-01
2.854243e-01
7.806730e-02
9.454842e-02
1.097328e-01
1.270287e-01
1.454427e-01
1.626906e-01
1.791893e-01
1.980790e-01
2.178252e-01
2.369228e-01
2.558506e-01
2.743187e-01
2.922055e-01
3.062957e-01
7.023704e-02
8.005015e-02
9.568098e-02
1.148503e-01
1.283410e-01
1.507881e-01
1.700888e-01
1.864375e-01
1.998320e-01
2.227727e-01
2.418626e-01
2.608287e-01
2.796491e-01
2.968962e-01
3.172993e-01
3.265623e-01
2.593337e-01
2.423289e-01
2.259627e-01
2.099109e-01
1.939471e-01
1.779786e-01
1.620376e-01
1.461974e-01
1.304973e-01
1.147666e-01
9.955767e-02
8.319673e-02
4.990184e-01
4.996607e-01
4.967191e-01
4.984361e-01
4.995750e-01
4.931547e-01
4.960327e-01
4.981390e-01
4.995064e-01
4.838850e-01
4.885805e-01
4.924510e-01
4.955614e-01
4.979214e-01
4.994498e-01
4.660839e-01
4.763724e-01
4.827531e-01
4.876894e-01
4.917878e-01
4.951406e-01
4.977097e-01
4.993878e-01
4.699989e-01
4.761035e-01
4.817706e-01
4.867873e-01
4.910983e-01
4.946730e-01
4.974451e-01
4.992970e-01
4.547099e-01
4.615574e-01
4.681695e-01
4.746390e-01
4.805260e-01
4.857516e-01
4.902756e-01
4.940542e-01
4.970233e-01
4.990931e-01
4.996171e-01
4.416366e-01
4.509069e-01
4.588353e-01
4.661850e-01
4.729589e-01
4.790730e-01
4.844982e-01
4.892015e-01
4.931265e-01
4.961653e-01
4.981354e-01
4.994773e-01
4.158076e-01
4.280347e-01
4.387983e-01
4.480502e-01
4.564007e-01
4.640647e-01
4.710493e-01
4.773407e-01
4.829238e-01
4.877703e-01
4.918387e-01
4.950849e-01
4.976133e-01
4.993484e-01
3.815957e-01
3.994951e-01
4.138277e-01
4.257227e-01
4.359880e-01
4.452973e-01
2.864106e-01
2.683638e-01
2.517083e-01
2.358301e-01
2.199823e-01
2.039796e-01
1.878495e-01
1.716581e-01
1.554548e-01
1.392405e-01
1.232162e-01
1.072512e-01
9.209702e-02
4.538518e-01
4.616828e-01
4.688033e-01
4.752222e-01
4.809249e-01
4.859225e-01
4.902636e-01
4.939877e-01
4.971041e-01
4.992033e-01
7.966557e-02
9.924902e-02
1.205312e-01
1.434251e-01
1.676275e-01
1.925868e-01
2.178345e-01
2.429138e-01
2.674167e-01
2.910381e-01
3.137475e-01
3.356707e-01
3.567487e-01
3.772322e-01
3.962850e-01
4.135117e-01
4.290153e-01
4.435998e-01
4.580310e-01
4.673549e-01
4.762492e-01
4.856495e-01
4.919996e-01
4.968227e-01
3.658763e-01
3.857723e-01
3.992198e-01
4.120616e-01
4.227995e-01
4.328915e-01
4.423254e-01
4.509939e-01
4.588900e-01
4.661004e-01
4.726034e-01
4.783507e-01
4.835344e-01
4.883013e-01
4.924345e-01
4.967686e-01
4.987513e-01
8.087728e-02
1.015376e-01
1.237814e-01
1.474898e-01
1.723050e-01
1.976835e-01
2.231770e-01
2.483786e-01
2.729695e-01
2.967592e-01
3.196783e-01
3.416749e-01
3.626790e-01
3.825409e-01
4.009759e-01
4.179179e-01
4.334203e-01
4.475794e-01
4.598646e-01
4.704534e-01
4.797503e-01
4.876772e-01
4.938344e-01
4.981652e-01
8.198819e-02
1.036463e-01
1.267834e-01
1.512681e-01
1.766839e-01
2.024895e-01
2.282575e-01
2.536283e-01
2.783399e-01
3.022254e-01
3.251764e-01
3.470928e-01
3.678604e-01
3.873435e-01
4.054273e-01
4.220655e-01
4.372227e-01
4.508141e-01
4.627743e-01
4.732142e-01
4.821349e-01
4.894613e-01
4.950498e-01
4.986873e-01
8.304591e-02
1.056626e-01
1.297034e-01
1.549753e-01
1.809959e-01
2.072241e-01
2.332592e-01
2.587850e-01
2.835755e-01
3.133191e-01
2.936398e-01
2.761876e-01
2.612311e-01
2.459439e-01
2.302188e-01
2.141708e-01
1.979103e-01
1.815207e-01
1.650513e-01
1.485541e-01
1.321242e-01
1.157473e-01
9.816101e-02
8.382692e-02
3.074777e-01
3.303738e-01
3.521487e-01
3.726836e-01
3.918719e-01
4.096376e-01
4.259264e-01
4.406856e-01
4.538746e-01
4.654929e-01
4.755496e-01
4.840046e-01
4.907955e-01
4.958215e-01
4.989398e-01
8.402634e-02
1.077246e-01
1.327796e-01
1.588810e-01
1.854972e-01
2.121129e-01
2.383678e-01
2.639907e-01
2.887949e-01
3.126566e-01
3.354625e-01
3.570831e-01
3.773917e-01
3.962900e-01
4.137178e-01
4.296266e-01
4.439788e-01
4.567585e-01
4.679610e-01
4.775622e-01
4.855245e-01
4.918064e-01
4.963493e-01
4.990909e-01
8.519159e-02
1.102031e-01
1.363798e-01
1.633034e-01
1.904551e-01
2.173868e-01
2.437694e-01
2.693884e-01
2.941285e-01
3.179289e-01
3.406525e-01
3.621208e-01
3.821909e-01
4.007624e-01
4.178049e-01
4.332824e-01
4.471882e-01
4.595160e-01
4.702515e-01
4.793539e-01
4.868144e-01
4.926256e-01
4.967582e-01
4.992033e-01
8.705803e-02
1.136261e-01
1.409326e-01
1.685280e-01
1.961155e-01
2.232902e-01
2.496263e-01
2.750446e-01
2.996511e-01
3.234826e-01
3.461725e-01
3.674719e-01
3.872820e-01
4.054509e-01
4.220138e-01
4.369552e-01
4.503906e-01
4.622426e-01
4.724574e-01
4.809963e-01
4.879581e-01
4.933556e-01
4.971309e-01
4.993094e-01
9.008942e-02
1.186993e-01
1.467633e-01
1.746004e-01
2.027513e-01
2.301884e-01
2.560016e-01
2.806765e-01
3.053775e-01
3.296729e-01
3.522556e-01
3.732716e-01
3.929181e-01
4.105541e-01
4.263547e-01
4.405361e-01
4.537440e-01
4.651180e-01
4.746313e-01
4.824516e-01
4.889929e-01
4.940970e-01
3.396923e-01
3.198366e-01
2.973021e-01
2.856368e-01
2.715431e-01
2.563925e-01
2.406518e-01
2.245494e-01
2.082174e-01
1.917285e-01
1.751262e-01
1.584542e-01
1.418100e-01
1.254845e-01
1.101520e-01
9.424266e-02
4.975522e-01
4.994344e-01
9.660020e-02
1.274126e-01
1.526053e-01
1.813514e-01
2.110556e-01
2.389574e-01
2.625920e-01
2.831387e-01
3.124787e-01
3.371398e-01
3.589340e-01
3.792516e-01
3.999913e-01
4.167172e-01
4.297352e-01
4.437216e-01
4.580009e-01
4.686620e-01
4.762130e-01
4.835635e-01
4.899026e-01
4.950556e-01
4.981834e-01
4.995349e-01
4.994881e-01
4.992107e-01
4.977483e-01
4.995107e-01
4.986057e-01
4.968469e-01
4.945959e-01
4.991971e-01
4.976899e-01
4.956509e-01
4.929997e-01
4.899260e-01
4.985140e-01
4.966858e-01
4.942142e-01
4.911642e-01
4.876033e-01
4.836403e-01
4.992660e-01
4.971570e-01
4.953509e-01
4.925895e-01
4.891274e-01
4.850949e-01
4.805899e-01
4.756580e-01
4.660866e-01
4.989863e-01
4.968420e-01
4.940046e-01
4.908285e-01
4.869476e-01
4.824384e-01
4.774068e-01
4.719465e-01
4.552561e-01
4.994776e-01
4.984227e-01
4.961147e-01
4.929071e-01
4.890822e-01
4.846990e-01
4.796898e-01
4.741147e-01
4.680856e-01
4.617445e-01
4.432175e-01
4.991932e-01
4.975474e-01
4.950996e-01
4.916377e-01
4.873694e-01
4.824471e-01
4.769090e-01
4.707758e-01
4.641232e-01
4.571170e-01
4.500330e-01
4.986436e-01
4.967172e-01
4.939175e-01
4.901996e-01
4.855804e-01
4.801954e-01
4.741395e-01
4.674552e-01
4.601821e-01
4.523928e-01
4.443979e-01
4.366881e-01
4.292265e-01
4.125850e-01
4.994036e-01
4.975683e-01
4.957128e-01
4.927049e-01
4.886847e-01
4.837263e-01
4.779262e-01
4.713946e-01
4.641963e-01
4.563579e-01
4.478963e-01
4.386586e-01
4.296843e-01
4.218059e-01
3.481575e-01
3.641491e-01
4.992095e-01
4.975723e-01
4.948956e-01
4.915612e-01
4.872151e-01
4.818855e-01
4.756665e-01
4.686763e-01
4.610098e-01
4.526751e-01
4.436783e-01
4.341038e-01
4.212003e-01
4.134111e-01
4.068418e-01
3.892008e-01
6.140000e-02
6.140000e-02
6.140000e-02
6.140000e-02
6.140000e-02
6.140000e-02
6.140000e-02
6.140000e-02
6.140000e-02
6.140000e-02
6.140000e-02
6.140000e-02
6.140000e-02
6.140000e-02
6.140000e-02
6.140000e-02
6.140000e-02
6.140000e-02
6.140000e-02
6.140000e-02
6.140000e-02
6.140000e-02
6.140000e-02
6.140000e-02
6.140000e-02
6.140000e-02
6.140000e-02
6.140000e-02
6.140000e-02
6.140000e-02
6.140000e-02
6.140000e-02
6.140000e-02
6.140000e-02
6.140000e-02
6.140000e-02
6.140000e-02
6.140000e-02
6.140000e-02
6.140000e-02
6.140000e-02
6.140000e-02
6.140000e-02
6.140000e-02
6.140000e-02
6.140000e-02
6.140000e-02
6.140000e-02
6.140000e-02
6.140000e-02
6.140000e-02
6.140000e-02
6.140000e-02
6.140000e-02
6.140000e-02
6.140000e-02
6.140000e-02
6.140000e-02
6.140000e-02
6.140000e-02
6.140000e-02
6.140000e-02
6.140000e-02
6.140000e-02
6.140000e-02
6.140000e-02
6.140000e-02
6.140000e-02
6.140000e-02
6.140000e-02
6.140000e-02
6.140000e-02
6.140000e-02
6.140000e-02
6.140000e-02
6.140000e-02
6.140000e-02
6.140000e-02
6.140000e-02
6.140000e-02
6.140000e-02
6.140000e-02
6.140000e-02
6.140000e-02
6.140000e-02
6.140000e-02
6.140000e-02
6.140000e-02
6.140000e-02
6.140000e-02
6.140000e-02
6.140000e-02
6.140000e-02
6.140000e-02
6.140000e-02
6.140000e-02
6.140000e-02
6.140000e-02
6.140000e-02
6.140000e-02
6.140000e-02
6.140000e-02
6.140000e-02
6.140000e-02
6.140000e-02
6.140000e-02
6.140000e-02
6.140000e-02
6.140000e-02
6.140000e-02
6.140000e-02
6.140000e-02
6.140000e-02
6.140000e-02
6.140000e-02
6.140000e-02
6.140000e-02
6.140000e-02
6.140000e-02
6.140000e-02
6.140000e-02
6.140000e-02
6.140000e-02
6.140000e-02
6.140000e-02
6.140000e-02
6.140000e-02
6.140000e-02
6.140000e-02
6.140000e-02
6.140000e-02
6.140000e-02
6.140000e-02
6.140000e-02
6.140000e-02
6.140000e-02
6.140000e-02
6.140000e-02
6.140000e-02
6.140000e-02
6.140000e-02
6.140000e-02
6.140000e-02
6.140000e-02
6.140000e-02
6.140000e-02
6.140000e-02
6.140000e-02
6.140000e-02
6.140000e-02
6.140000e-02
6.140000e-02
6.140000e-02
6.140000e-02
6.140000e-02
6.140000e-02
6.140000e-02
6.140000e-02
6.140000e-02
6.140000e-02
6.140000e-02
6.140000e-02
6.140000e-02
6.140000e-02
6.140000e-02
6.140000e-02
6.140000e-02
6.140000e-02
6.140000e-02
6.140000e-02
6.140000e-02
6.140000e-02
6.140000e-02
6.140000e-02
6.140000e-02
6.140000e-02
6.140000e-02
6.140000e-02
6.140000e-02
6.140000e-02
6.140000e-02
6.140000e-02
6.140000e-02
6.140000e-02
6.140000e-02
6.140000e-02
6.140000e-02
6.140000e-02
6.140000e-02
6.140000e-02
6.140000e-02
6.140000e-02
6.140000e-02
6.140000e-02
6.140000e-02
6.140000e-02
6.140000e-02
6.140000e-02
6.140000e-02
6.140000e-02
6.140000e-02
6.140000e-02
6.140000e-02
6.140000e-02
6.140000e-02
6.140000e-02
6.140000e-02
6.140000e-02
6.140000e-02
6.140000e-02
6.140000e-02
6.140000e-02
6.140000e-02
6.140000e-02
6.140000e-02
6.140000e-02
6.140000e-02
6.140000e-02
6.140000e-02
6.140000e-02
6.140000e-02
6.140000e-02
6.140000e-02
6.140000e-02
6.140000e-02
6.140000e-02
6.140000e-02
6.140000e-02
6.140000e-02
6.140000e-02
6.140000e-02
6.140000e-02
6.140000e-02
6.140000e-02
6.140000e-02
6.140000e-02
6.140000e-02
6.140000e-02
6.140000e-02
6.140000e-02
6.140000e-02
6.140000e-02
6.140000e-02
6.140000e-02
6.140000e-02
6.140000e-02
6.140000e-02
6.140000e-02
6.140000e-02
6.140000e-02
6.140000e-02
6.140000e-02
6.140000e-02
6.140000e-02
6.140000e-02
6.140000e-02
6.140000e-02
6.140000e-02
6.140000e-02
6.140000e-02
6.140000e-02
6.140000e-02
6.140000e-02
6.140000e-02
6.140000e-02
6.140000e-02
6.140000e-02
6.140000e-02
6.140000e-02
6.140000e-02
6.140000e-02
6.140000e-02
6.140000e-02
6.140000e-02
6.140000e-02
6.140000e-02
6.140000e-02
6.140000e-02
6.140000e-02
6.140000e-02
6.140000e-02
6.140000e-02
6.140000e-02
6.140000e-02
6.140000e-02
6.140000e-02
6.140000e-02
6.140000e-02
6.140000e-02
6.140000e-02
6.140000e-02
6.140000e-02
6.140000e-02
6.140000e-02
6.140000e-02
6.140000e-02
6.140000e-02
6.140000e-02
6.140000e-02
6.140000e-02
6.140000e-02
6.140000e-02
6.140000e-02
6.140000e-02
6.140000e-02
6.140000e-02
6.140000e-02
6.140000e-02
6.140000e-02
6.140000e-02
6.140000e-02
6.140000e-02
6.140000e-02
6.140000e-02
6.140000e-02
6.140000e-02
6.140000e-02
6.140000e-02
6.140000e-02
6.140000e-02
6.140000e-02
6.140000e-02
6.140000e-02
6.140000e-02
6.140000e-02
6.140000e-02
6.140000e-02
6.140000e-02
6.140000e-02
6.140000e-02
6.140000e-02
6.140000e-02
6.140000e-02
6.140000e-02
6.140000e-02
6.140000e-02
6.140000e-02
6.140000e-02
6.140000e-02
6.140000e-02
6.140000e-02
6.140000e-02
6.140000e-02
6.140000e-02
6.140000e-02
6.140000e-02
6.140000e-02
6.140000e-02
6.140000e-02
6.140000e-02
6.140000e-02
6.140000e-02
6.140000e-02
6.140000e-02
6.140000e-02
6.140000e-02
6.140000e-02
6.140000e-02
6.140000e-02
6.140000e-02
6.140000e-02
6.140000e-02
6.140000e-02
6.140000e-02
6.140000e-02
6.140000e-02
6.140000e-02
6.140000e-02
6.140000e-02
6.140000e-02
2.114000e-01
2.114000e-01
2.114000e-01
2.114000e-01
2.114000e-01
2.114000e-01
2.114000e-01
2.114000e-01
2.114000e-01
2.114000e-01
2.114000e-01
2.114000e-01
2.114000e-01
2.114000e-01
2.114000e-01
2.114000e-01
2.114000e-01
2.114000e-01
2.114000e-01
2.114000e-01
2.114000e-01
2.114000e-01
2.114000e-01
2.114000e-01
2.114000e-01
2.114000e-01
2.114000e-01
2.114000e-01
2.114000e-01
2.114000e-01
2.114000e-01
2.114000e-01
2.114000e-01
1.656480e-01
1.585853e-01
1.763638e-01
1.627163e-01
1.685659e-01
1.547448e-01
1.540254e-01
1.478911e-01
1.433412e-01
1.690156e-01
1.632429e-01
1.576110e-01
1.686591e-01
1.567298e-01
1.664330e-01
7.896671e-02
2.096963e-01
2.070180e-01
2.013307e-01
2.038397e-01
2.018594e-01
1.964012e-01
2.020458e-01
1.984613e-01
1.948720e-01
1.953982e-01
1.909998e-01
1.864103e-01
1.914242e-01
1.865966e-01
1.820022e-01
1.765527e-01
2.085723e-01
1.866215e-01
1.813323e-01
1.759662e-01
1.726430e-01
1.654325e-01
1.632175e-01
1.677702e-01
1.556885e-01
1.820800e-01
1.722565e-01
2.106777e-01
1.605644e-01
1.462612e-01
1.532401e-01
1.473037e-01
1.407627e-01
1.354546e-01
1.330026e-01
1.386238e-01
1.319519e-01
1.266832e-01
1.227203e-01
1.289009e-01
1.209991e-01
1.170147e-01
1.127931e-01
1.097819e-01
1.066207e-01
1.029674e-01
9.596312e-02
9.322700e-02
8.266911e-02
1.216950e-01
1.055787e-01
9.268233e-02
8.232121e-02
7.137801e-02
2.014659e-01
1.965003e-01
2.107612e-01
2.084873e-01
2.099011e-01
2.048736e-01
2.068296e-01
2.024988e-01
1.969423e-01
2.055017e-01
2.083836e-01
2.105357e-01
9.856002e-02
8.607867e-02
7.261672e-02
9.806997e-02
8.327732e-02
6.964481e-02
2.013258e-01
1.963612e-01
2.107821e-01
2.085283e-01
2.098740e-01
2.049169e-01
2.067754e-01
2.023948e-01
1.967895e-01
9.807535e-02
8.585143e-02
7.256194e-02
9.874545e-02
8.372545e-02
6.978861e-02
2.107618e-01
2.084466e-01
2.097229e-01
2.047693e-01
2.064399e-01
2.020231e-01
1.967174e-01
9.932521e-02
8.659460e-02
7.266063e-02
2.105515e-01
2.075109e-01
2.040292e-01
2.016428e-01
1.981059e-01
1.968356e-01
1.889153e-01
9.845675e-02
8.442929e-02
7.055812e-02
1.249342e-01
1.109253e-01
9.658692e-02
8.092623e-02
6.951827e-02
2.021733e-01
1.975052e-01
2.107857e-01
2.085718e-01
2.099021e-01
2.050931e-01
2.068694e-01
2.024730e-01
1.971000e-01
1.009363e-01
8.794189e-02
7.377137e-02
9.864632e-02
8.414239e-02
1.956203e-01
2.005057e-01
2.043372e-01
2.075686e-01
7.012064e-02
2.108218e-01
2.086938e-01
2.055415e-01
1.010672e-01
8.831917e-02
7.312824e-02
2.004550e-01
1.951882e-01
2.106520e-01
2.082680e-01
2.096797e-01
2.044157e-01
2.061867e-01
1.988825e-01
2.011184e-01
1.918638e-01
1.949788e-01
1.211194e-01
1.079122e-01
9.457425e-02
8.265331e-02
7.093811e-02
9.578361e-02
8.167282e-02
6.912604e-02
2.106813e-01
2.081551e-01
2.094969e-01
2.042074e-01
2.060241e-01
2.016090e-01
1.961834e-01
1.864533e-01
9.723559e-02
8.586640e-02
7.217449e-02
2.109485e-01
2.083918e-01
2.044012e-01
2.015744e-01
1.981199e-01
1.966661e-01
1.885624e-01
9.873988e-02
8.394459e-02
7.032110e-02
1.244538e-01
1.105818e-01
9.643573e-02
8.084766e-02
6.946877e-02
2.013163e-01
1.963466e-01
2.107264e-01
2.084651e-01
2.098292e-01
2.049726e-01
2.066454e-01
2.020384e-01
1.964607e-01
1.003538e-01
8.754715e-02
7.357573e-02
9.720077e-02
8.326702e-02
6.974694e-02
2.016402e-01
1.967081e-01
2.107594e-01
1.783483e-01
2.084652e-01
2.098680e-01
2.048255e-01
2.067869e-01
2.024283e-01
1.968223e-01
9.863063e-02
8.596676e-02
7.230937e-02
9.633757e-02
8.265083e-02
6.948251e-02
2.107572e-01
2.084458e-01
2.096427e-01
2.048601e-01
2.061199e-01
2.011193e-01
1.955705e-01
9.732224e-02
8.572273e-02
7.206152e-02
2.106955e-01
2.087774e-01
2.059926e-01
2.009494e-01
2.008689e-01
1.959870e-01
1.916069e-01
9.749635e-02
8.305166e-02
6.975890e-02
1.287664e-01
1.146924e-01
9.712371e-02
8.343254e-02
7.159868e-02
2.107182e-01
2.083153e-01
2.094765e-01
1.930327e-01
1.984018e-01
2.027915e-01
2.062020e-01
2.083597e-01
2.105398e-01
2.045566e-01
2.060021e-01
2.013768e-01
1.960300e-01
9.719156e-02
8.513868e-02
7.237089e-02
2.108566e-01
2.078893e-01
2.024188e-01
1.975354e-01
1.910108e-01
9.808269e-02
8.369668e-02
6.985026e-02
7.360222e-02
2.063912e-01
2.042469e-01
2.003799e-01
1.998625e-01
1.937537e-01
1.923475e-01
1.943806e-01
1.866036e-01
1.774538e-01
1.814223e-01
1.857289e-01
1.881917e-01
1.688980e-01
1.747689e-01
1.795900e-01
1.792256e-01
1.538872e-01
1.420558e-01
1.324334e-01
1.227826e-01
1.123895e-01
1.006921e-01
8.942992e-02
8.208607e-02
7.279473e-02
8.807707e-02
9.366022e-02
1.037007e-01
1.043150e-01
1.204551e-01
1.170671e-01
1.145178e-01
1.318682e-01
1.280943e-01
1.252010e-01
1.351016e-01
1.462262e-01
1.417399e-01
1.379914e-01
1.591483e-01
1.552154e-01
1.504905e-01
1.470278e-01
1.447841e-01
1.736831e-01
1.545450e-01
1.636690e-01
1.685798e-01
2.097972e-01
7.198262e-02
2.102261e-01
2.099949e-01
2.085477e-01
2.066107e-01
2.108519e-01
2.015262e-01
1.989280e-01
1.957473e-01
1.785764e-01
1.841887e-01
1.904860e-01
1.963520e-01
2.011657e-01
2.050051e-01
2.080398e-01
2.101967e-01
2.108302e-01
2.095425e-01
2.071087e-01
2.039218e-01
1.834912e-01
2.105659e-01
2.087563e-01
2.060476e-01
2.022979e-01
1.979657e-01
1.935086e-01
1.890197e-01
2.110309e-01
2.100004e-01
2.074013e-01
2.053119e-01
2.002313e-01
1.954737e-01
1.908810e-01
1.869926e-01
1.793631e-01
1.734064e-01
7.788031e-02
6.962366e-02
9.976080e-02
9.109084e-02
8.012812e-02
7.206284e-02
1.039024e-01
8.965474e-02
1.383389e-01
1.311897e-01
1.205640e-01
1.066283e-01
9.509031e-02
8.535753e-02
7.644288e-02
6.993332e-02
1.223610e-01
1.108660e-01
1.990417e-01
1.918170e-01
1.839133e-01
1.740243e-01
1.625152e-01
1.495584e-01
1.357610e-01
2.106889e-01
2.088334e-01
2.050357e-01
1.987850e-01
1.906659e-01
1.806331e-01
1.697789e-01
1.580089e-01
1.459513e-01
1.351511e-01
1.225145e-01
1.118730e-01
9.966652e-02
8.565489e-02
7.421933e-02
1.517518e-01
1.431090e-01
1.326220e-01
1.204395e-01
1.091921e-01
9.905860e-02
8.972345e-02
8.142809e-02
7.294337e-02
6.973335e-02
1.863739e-01
1.782059e-01
1.675786e-01
1.548590e-01
9.165935e-02
8.526995e-02
7.399002e-02
1.388780e-01
1.248593e-01
1.106812e-01
9.577366e-02
8.221360e-02
7.169732e-02
1.989676e-01
1.916393e-01
1.835009e-01
1.731802e-01
1.615788e-01
1.489504e-01
1.355114e-01
1.213334e-01
1.086659e-01
9.491849e-02
2.106231e-01
2.088771e-01
2.051968e-01
1.994826e-01
1.908083e-01
1.790959e-01
1.676053e-01
1.552797e-01
1.425181e-01
1.303346e-01
2.105733e-01
2.079174e-01
2.039613e-01