VARIABLES = "X" "Y" "Z" "FREF"
ZONE T="instant 116"
STRANDID=0, SOLUTIONTIME=0
Nodes=1235, Elements=2466
ZONETYPE=FETriangle
DATAPACKING=BLOCK
VARLOCATION = ([1-3]=NODAL, [4]=CELLCENTERED)
5.000000e-01
3.359824e-01
3.479543e-01
3.635785e-01
3.813037e-01
3.958613e-01
4.099658e-01
4.273272e-01
4.441364e-01
4.591690e-01
4.716639e-01
4.814333e-01
4.875574e-01
4.923537e-01
4.965078e-01
4.986251e-01
4.997065e-01
3.266000e-01
3.266000e-01
3.266000e-01
3.266000e-01
4.762537e-01
4.735895e-01
4.684611e-01
4.603915e-01
4.499901e-01
4.374690e-01
4.227751e-01
4.068779e-01
3.890901e-01
3.695406e-01
3.533905e-01
3.388969e-01
4.766000e-01
4.918854e-01
4.837576e-01
3.507318e-01
3.451842e-01
3.654799e-01
3.870552e-01
4.085673e-01
4.255650e-01
4.411846e-01
4.548436e-01
4.661251e-01
4.756393e-01
4.829663e-01
4.861067e-01
3.266000e-01
4.996657e-01
4.978857e-01
4.938709e-01
4.872424e-01
4.782964e-01
4.684605e-01
4.565195e-01
4.424079e-01
4.296329e-01
4.169731e-01
4.009308e-01
3.838526e-01
3.681916e-01
3.554062e-01
3.449375e-01
3.349813e-01
5.000000e-01
4.842417e-01
4.922342e-01
4.766000e-01
3.427488e-01
3.615428e-01
3.806493e-01
4.002728e-01
4.198671e-01
4.343523e-01
4.459537e-01
4.567203e-01
4.645882e-01
4.704716e-01
4.744761e-01
4.762706e-01
3.266000e-01
3.266000e-01
3.266000e-01
4.875982e-01
4.843636e-01
4.792667e-01
4.719748e-01
4.624986e-01
4.515418e-01
4.385865e-01
4.195493e-01
3.998670e-01
3.819318e-01
3.641372e-01
3.437030e-01
5.000000e-01
5.000000e-01
5.000000e-01
5.000000e-01
5.000000e-01
5.000000e-01
5.000000e-01
5.000000e-01
5.000000e-01
5.000000e-01
5.000000e-01
5.000000e-01
5.000000e-01
5.000000e-01
5.000000e-01
5.000000e-01
5.000000e-01
5.000000e-01
5.000000e-01
5.000000e-01
5.000000e-01
5.000000e-01
5.000000e-01
5.000000e-01
5.000000e-01
5.000000e-01
5.000000e-01
5.000000e-01
5.000000e-01
5.000000e-01
5.000000e-01
5.000000e-01
5.000000e-01
3.266000e-01
3.266000e-01
3.266000e-01
3.266000e-01
3.266000e-01
3.266000e-01
3.266000e-01
3.266000e-01
3.266000e-01
3.266000e-01
3.266000e-01
3.266000e-01
3.266000e-01
3.266000e-01
3.266000e-01
3.266000e-01
3.266000e-01
3.266000e-01
3.266000e-01
3.266000e-01
3.266000e-01
3.266000e-01
3.266000e-01
3.266000e-01
3.266000e-01
3.266000e-01
3.266000e-01
3.266000e-01
3.266000e-01
3.266000e-01
3.266000e-01
3.266000e-01
3.266000e-01
4.470020e-01
4.380455e-01
4.500386e-01
4.265252e-01
4.410584e-01
4.326966e-01
4.562406e-01
4.598726e-01
4.344987e-01
4.505495e-01
4.426084e-01
4.553798e-01
4.448882e-01
4.573503e-01
3.421750e-01
4.340525e-01
4.473357e-01
4.591725e-01
4.295475e-01
4.376462e-01
4.449135e-01
4.596152e-01
4.760975e-01
4.406432e-01
4.332043e-01
4.470548e-01
4.578208e-01
4.667667e-01
4.812617e-01
4.825672e-01
4.780788e-01
4.838174e-01
4.887102e-01
4.908391e-01
3.497588e-01
3.557232e-01
3.460211e-01
3.383273e-01
3.594590e-01
3.640501e-01
3.720267e-01
3.743662e-01
3.806882e-01
3.863602e-01
3.813168e-01
3.927550e-01
3.921068e-01
3.966426e-01
4.012508e-01
4.037865e-01
4.068892e-01
4.080714e-01
4.117885e-01
4.162016e-01
4.133787e-01
4.182164e-01
4.229725e-01
4.210662e-01
4.268399e-01
4.307597e-01
4.703043e-01
4.696308e-01
3.708927e-01
3.611438e-01
3.516113e-01
3.408376e-01
4.647678e-01
4.596054e-01
4.524465e-01
4.439253e-01
4.615675e-01
4.558060e-01
4.742059e-01
4.729424e-01
4.703064e-01
4.668331e-01
3.600320e-01
3.740675e-01
3.790506e-01
3.920649e-01
3.948471e-01
3.902406e-01
4.132776e-01
4.126455e-01
4.066352e-01
4.017641e-01
4.325393e-01
4.464357e-01
4.294818e-01
4.208707e-01
4.207430e-01
4.124198e-01
4.974096e-01
4.945309e-01
4.943742e-01
4.900168e-01
4.901694e-01
4.849499e-01
4.841204e-01
4.842588e-01
4.774435e-01
3.864731e-01
3.763458e-01
3.663861e-01
3.562508e-01
3.462443e-01
4.788269e-01
4.768867e-01
4.766677e-01
4.603649e-01
4.697014e-01
4.669393e-01
4.682100e-01
4.696240e-01
4.718259e-01
4.218983e-01
4.388532e-01
4.527101e-01
4.649466e-01
4.595381e-01
4.337305e-01
4.483510e-01
3.377162e-01
3.395502e-01
3.496119e-01
3.383492e-01
3.409319e-01
3.532530e-01
3.626289e-01
3.496386e-01
3.574338e-01
3.678401e-01
3.771226e-01
3.398140e-01
3.512630e-01
3.622399e-01
3.722412e-01
3.830933e-01
3.931584e-01
3.374912e-01
3.439890e-01
3.540561e-01
3.649003e-01
3.758880e-01
3.869874e-01
3.991163e-01
4.104737e-01
4.230091e-01
3.396128e-01
3.501118e-01
3.591293e-01
3.680986e-01
3.787384e-01
3.899689e-01
4.012781e-01
4.160306e-01
4.262118e-01
4.331632e-01
4.017817e-01
3.916664e-01
3.816543e-01
3.717547e-01
3.614164e-01
3.498046e-01
3.409520e-01
4.990045e-01
4.996217e-01
4.964248e-01
4.981785e-01
4.994673e-01
4.920765e-01
4.951833e-01
4.975986e-01
4.993262e-01
4.813296e-01
4.864073e-01
4.905404e-01
4.940629e-01
4.970091e-01
4.991420e-01
4.635261e-01
4.730120e-01
4.794869e-01
4.842544e-01
4.886711e-01
4.927263e-01
4.962063e-01
4.988390e-01
4.808160e-01
4.876910e-01
4.947178e-01
4.980915e-01
4.535398e-01
4.989911e-01
4.647029e-01
4.723628e-01
4.763094e-01
4.812364e-01
4.862891e-01
4.908924e-01
4.948473e-01
4.981157e-01
3.381138e-01
3.494459e-01
3.622972e-01
3.759166e-01
3.903102e-01
4.050793e-01
4.197928e-01
4.339570e-01
4.472660e-01
4.598933e-01
4.724980e-01
4.818469e-01
4.893333e-01
4.950559e-01
4.986503e-01
3.387208e-01
4.177817e-01
4.067527e-01
3.967588e-01
3.877253e-01
3.777466e-01
3.671005e-01
3.569392e-01
3.470455e-01
3.512872e-01
3.646628e-01
3.787233e-01
3.933309e-01
4.081361e-01
4.227720e-01
4.368811e-01
4.502445e-01
4.627042e-01
4.737866e-01
4.829229e-01
4.901910e-01
4.955436e-01
4.988616e-01
3.394913e-01
3.527049e-01
3.665156e-01
3.808989e-01
3.956955e-01
4.105771e-01
4.252018e-01
4.392457e-01
4.524288e-01
4.644530e-01
4.749830e-01
4.837913e-01
4.907790e-01
4.958633e-01
4.989611e-01
3.400828e-01
3.537734e-01
3.679400e-01
3.825817e-01
3.975379e-01
4.124868e-01
4.270934e-01
4.410293e-01
4.539942e-01
4.657022e-01
4.759085e-01
4.844425e-01
4.911903e-01
4.960688e-01
4.990168e-01
3.405273e-01
3.545786e-01
3.690224e-01
3.838681e-01
3.989475e-01
4.139433e-01
4.285181e-01
4.423455e-01
4.551302e-01
4.666150e-01
4.765934e-01
4.849168e-01
4.914787e-01
4.962059e-01
4.990523e-01
3.408604e-01
3.551836e-01
3.698392e-01
3.848393e-01
4.000111e-01
4.150360e-01
4.295783e-01
4.433147e-01
4.559633e-01
4.672854e-01
4.770969e-01
4.852616e-01
4.529438e-01
4.618253e-01
4.691267e-01
4.750255e-01
4.808330e-01
4.861781e-01
4.907590e-01
4.945692e-01
4.974297e-01
4.991357e-01
4.998087e-01
4.916844e-01
4.963013e-01
4.990767e-01
3.411141e-01
3.556431e-01
3.704578e-01
3.855745e-01
4.008150e-01
4.158614e-01
4.303761e-01
4.440433e-01
4.565890e-01
4.677907e-01
4.774758e-01
4.855205e-01
4.918379e-01
4.963727e-01
4.990951e-01
3.413181e-01
3.560029e-01
3.709391e-01
3.861478e-01
4.014466e-01
4.165123e-01
4.310092e-01
4.446231e-01
4.570908e-01
4.681973e-01
4.777827e-01
4.857306e-01
4.919635e-01
4.357203e-01
4.214118e-01
4.104156e-01
4.040424e-01
3.947253e-01
3.841795e-01
3.733552e-01
3.631578e-01
3.525036e-01
3.421264e-01
4.964318e-01
4.991112e-01
3.414874e-01
3.562904e-01
3.713344e-01
3.866329e-01
4.019899e-01
4.170814e-01
4.315676e-01
4.451407e-01
4.575418e-01
4.685672e-01
4.780636e-01
4.859250e-01
4.920800e-01
4.964867e-01
4.991257e-01
3.415603e-01
3.565286e-01
3.717104e-01
3.871072e-01
4.025332e-01
4.176571e-01
4.321401e-01
4.456751e-01
4.580131e-01
4.689566e-01
4.783631e-01
4.861334e-01
4.922057e-01
4.965453e-01
4.991405e-01
3.417684e-01
3.568661e-01
3.721537e-01
3.876561e-01
4.031645e-01
4.183315e-01
4.328114e-01
4.463049e-01
4.585701e-01
4.694212e-01
4.787227e-01
4.863860e-01
4.923587e-01
4.966169e-01
4.991585e-01
3.420220e-01
3.572341e-01
3.726862e-01
3.883559e-01
4.039804e-01
4.191971e-01
4.336666e-01
4.471025e-01
4.592774e-01
4.700129e-01
4.791838e-01
4.867118e-01
4.925583e-01
4.967120e-01
4.991833e-01
3.420290e-01
3.576162e-01
3.734219e-01
3.893362e-01
4.050975e-01
4.203488e-01
4.347825e-01
4.481368e-01
4.601935e-01
4.707819e-01
4.797845e-01
4.726079e-01
4.782002e-01
4.832410e-01
4.878428e-01
4.918027e-01
4.949711e-01
4.976208e-01
4.993490e-01
4.871387e-01
4.928226e-01
4.968412e-01
4.992185e-01
3.424828e-01
3.584851e-01
3.746395e-01
3.907872e-01
4.066319e-01
4.218598e-01
4.362208e-01
4.494673e-01
4.613744e-01
4.717727e-01
4.805581e-01
4.876902e-01
4.931681e-01
4.970140e-01
4.992662e-01
3.433804e-01
3.600057e-01
3.765410e-01
3.928496e-01
4.086270e-01
4.237433e-01
4.380242e-01
4.511566e-01
4.628738e-01
4.730204e-01
4.815241e-01
4.883875e-01
4.936131e-01
4.662703e-01
4.972393e-01
4.993244e-01
3.446506e-01
3.625425e-01
3.794611e-01
3.955499e-01
4.109031e-01
4.259457e-01
4.402620e-01
4.533019e-01
4.647480e-01
4.745244e-01
4.826612e-01
4.892702e-01
4.942059e-01
4.975180e-01
4.993714e-01
3.463395e-01
3.606757e-01
3.799318e-01
3.994987e-01
3.470855e-01
3.681244e-01
3.839295e-01
3.977759e-01
4.130419e-01
4.285083e-01
4.431273e-01
4.561094e-01
4.670526e-01
4.761363e-01
4.837908e-01
4.905610e-01
4.951750e-01
4.976369e-01
4.993374e-01
4.995286e-01
4.992825e-01
4.979369e-01
4.995440e-01
4.767079e-01
4.813545e-01
4.857426e-01
4.897250e-01
4.931677e-01
4.958869e-01
4.976498e-01
4.994228e-01
4.987143e-01
4.970645e-01
4.949670e-01
4.992865e-01
4.978503e-01
4.959166e-01
4.933988e-01
4.905005e-01
4.987294e-01
4.969839e-01
4.945801e-01
4.916231e-01
4.882111e-01
4.846092e-01
3.266000e-01
3.266000e-01
3.266000e-01
3.266000e-01
3.266000e-01
3.266000e-01
3.266000e-01
3.266000e-01
3.266000e-01
3.266000e-01
3.266000e-01
3.266000e-01
3.266000e-01
3.266000e-01
3.266000e-01
3.266000e-01
3.266000e-01
3.266000e-01
3.266000e-01
3.266000e-01
3.266000e-01
3.266000e-01
3.266000e-01
3.266000e-01
3.266000e-01
3.266000e-01
3.266000e-01
3.266000e-01
3.266000e-01
3.266000e-01
3.266000e-01
3.266000e-01
3.266000e-01
3.266000e-01
3.266000e-01
3.266000e-01
3.266000e-01
3.266000e-01
3.266000e-01
3.266000e-01
3.266000e-01
3.266000e-01
3.266000e-01
3.266000e-01
3.266000e-01
3.266000e-01
3.266000e-01
3.266000e-01
3.266000e-01
3.266000e-01
3.266000e-01
3.266000e-01
3.266000e-01
3.266000e-01
3.266000e-01
3.266000e-01
3.266000e-01
3.266000e-01
3.266000e-01
3.266000e-01
3.266000e-01
3.266000e-01
3.266000e-01
3.266000e-01
3.266000e-01
3.266000e-01
3.266000e-01
3.266000e-01
3.266000e-01
3.266000e-01
3.266000e-01
3.266000e-01
3.266000e-01
3.266000e-01
3.266000e-01
3.266000e-01
3.266000e-01
3.266000e-01
3.266000e-01
3.266000e-01
3.266000e-01
3.266000e-01
3.266000e-01
3.266000e-01
3.266000e-01
3.266000e-01
3.266000e-01
3.266000e-01
3.266000e-01
3.266000e-01
3.266000e-01
3.266000e-01
3.266000e-01
4.766000e-01
4.766000e-01
4.766000e-01
4.766000e-01
4.766000e-01
4.766000e-01
4.766000e-01
4.766000e-01
4.766000e-01
4.766000e-01
4.766000e-01
4.766000e-01
4.766000e-01
4.766000e-01
4.766000e-01
4.766000e-01
4.766000e-01
4.766000e-01
4.766000e-01
4.766000e-01
4.766000e-01
4.766000e-01
4.766000e-01
4.766000e-01
4.766000e-01
4.766000e-01
4.766000e-01
4.766000e-01
4.766000e-01
4.766000e-01
4.766000e-01
4.766000e-01
4.766000e-01
4.458034e-01
4.196182e-01
4.219572e-01
4.398707e-01
4.336823e-01
4.464040e-01
4.730828e-01
3.865249e-01
4.557438e-01
4.692837e-01
4.686019e-01
4.633085e-01
4.654927e-01
4.587094e-01
4.536483e-01
4.600070e-01
4.548943e-01
4.481535e-01
4.461369e-01
4.422923e-01
4.451797e-01
4.354673e-01
4.751294e-01
4.759859e-01
4.321557e-01
4.342297e-01
4.343032e-01
4.314225e-01
4.098463e-01
4.231088e-01
4.138017e-01
4.013939e-01
4.053458e-01
3.983303e-01
3.812791e-01
4.385235e-01
4.276136e-01
4.141419e-01
4.047894e-01
4.028981e-01
4.032531e-01
3.995060e-01
4.486936e-01
4.361072e-01
4.239596e-01
4.363434e-01
4.246912e-01
4.099142e-01
3.974893e-01
4.713972e-01
4.737237e-01
4.756246e-01
3.953231e-01
3.633332e-01
3.790630e-01
3.802975e-01
4.086418e-01
3.986158e-01
3.958200e-01
4.214570e-01
4.183008e-01
4.133534e-01
4.088208e-01
4.344453e-01
4.302739e-01
4.248304e-01
4.196380e-01
4.744364e-01
4.713611e-01
4.616783e-01
4.621416e-01
4.474354e-01
4.466563e-01
4.530470e-01
4.572405e-01
4.280518e-01
4.396222e-01
4.514363e-01
4.761117e-01
4.761245e-01
4.761631e-01
4.761366e-01
4.760856e-01
4.761363e-01
4.760875e-01
4.760493e-01
4.650621e-01
4.688620e-01
4.720616e-01
4.746480e-01
4.759525e-01
4.762381e-01
4.763494e-01
4.762165e-01
4.762817e-01
4.760162e-01
4.723916e-01
4.753913e-01
4.751579e-01
4.736580e-01
4.711662e-01
4.679309e-01
4.760134e-01
4.746612e-01
4.722235e-01
4.691953e-01
4.652583e-01
4.611825e-01
4.757412e-01
4.736979e-01
4.708427e-01
4.672237e-01
4.626521e-01
4.560960e-01
4.533244e-01
3.448335e-01
3.627496e-01
3.455148e-01
3.922340e-01
3.787531e-01
3.634011e-01
3.461558e-01
4.067720e-01
3.941136e-01
3.803494e-01
3.651995e-01
4.561019e-01
4.613693e-01
4.659294e-01
4.698352e-01
4.739581e-01
4.756915e-01
3.478104e-01
4.753040e-01
4.723583e-01
4.671119e-01
4.594062e-01
4.479939e-01
4.352573e-01
4.207808e-01
4.055820e-01
3.887585e-01
3.661410e-01
3.502394e-01
4.341932e-01
4.214670e-01
4.087417e-01
3.962775e-01
3.832476e-01
3.690417e-01
3.519152e-01
3.448145e-01
3.975887e-01
3.754599e-01
3.565953e-01
4.555809e-01
4.436174e-01
4.330638e-01
4.198211e-01
4.750267e-01
4.719740e-01
4.657390e-01
4.753463e-01
4.710688e-01
4.644932e-01
4.567481e-01
4.447856e-01
4.334697e-01
4.227514e-01
4.086845e-01
3.917084e-01
3.726298e-01
3.514870e-01
3.883222e-01
3.697571e-01
3.491497e-01
4.560277e-01
4.440008e-01
4.327105e-01
4.181144e-01
4.756361e-01
4.730614e-01
4.664492e-01
4.751390e-01
4.700740e-01
4.294091e-01
4.160261e-01
4.045638e-01
3.922062e-01
3.784591e-01
3.632020e-01
3.482083e-01
3.368312e-01
4.639717e-01
4.585105e-01
4.492631e-01
4.326119e-01
4.158223e-01
4.027490e-01
3.865251e-01
3.681540e-01
3.480875e-01
3.859447e-01
3.674248e-01
3.476012e-01
4.593085e-01
4.490374e-01
4.353321e-01
4.198963e-01
4.751012e-01
4.715316e-01
4.657921e-01
4.755273e-01
4.720813e-01
4.659708e-01
4.578891e-01
4.463014e-01
4.342028e-01
4.189686e-01
4.031633e-01
3.857062e-01
3.670227e-01
3.473216e-01
3.853056e-01
4.446654e-01
3.665769e-01
3.470411e-01
4.752169e-01
4.709542e-01
4.646599e-01
4.566105e-01
4.467516e-01
4.360648e-01
4.212250e-01
4.022041e-01
3.844082e-01
3.659003e-01
3.466547e-01
4.534030e-01
4.428647e-01
4.321361e-01
4.174645e-01
4.745088e-01
4.704904e-01
4.633265e-01
4.748828e-01
4.695526e-01
4.130606e-01
4.008240e-01
3.878332e-01
3.753839e-01
3.612889e-01
3.452325e-01
4.622858e-01
4.547798e-01
4.445957e-01
4.305464e-01
4.149519e-01
4.003539e-01
3.831914e-01
3.649684e-01
3.461000e-01
3.818032e-01
3.636398e-01
3.452340e-01
4.745883e-01
4.706527e-01
4.619787e-01
4.743746e-01
4.674087e-01
4.600876e-01
4.514052e-01
4.402385e-01
4.276086e-01
4.133696e-01
3.972687e-01
3.794962e-01
3.613687e-01
3.437074e-01
4.747032e-01
4.706015e-01
4.635369e-01
4.552624e-01
4.434051e-01
4.297575e-01
4.122022e-01
3.951426e-01
3.754106e-01
3.568405e-01
3.421727e-01
4.743163e-01
4.711562e-01
4.641122e-01
4.560412e-01
4.444276e-01
4.306341e-01
4.147410e-01
3.927291e-01
3.763872e-01
3.603349e-01
3.455099e-01
4.746052e-01
4.724149e-01
4.676868e-01
4.579895e-01
4.462576e-01
3.987391e-01
3.827650e-01
3.695020e-01
3.595531e-01
3.441603e-01
4.315945e-01
4.171286e-01
4.023831e-01
3.861239e-01
3.667426e-01
3.480151e-01
3.908071e-01
3.730984e-01
3.505809e-01
4.752592e-01
4.716541e-01
4.654314e-01
4.558117e-01
4.441396e-01
4.319914e-01
4.190244e-01
4.041396e-01
3.871526e-01
3.683408e-01
3.476984e-01
4.545136e-01
4.425315e-01
4.272679e-01
4.129245e-01
4.747179e-01
4.702092e-01
4.628307e-01
4.750993e-01
4.708925e-01
4.638109e-01
4.526074e-01
4.381565e-01
4.266371e-01
4.150847e-01
4.003782e-01
3.837543e-01
3.656894e-01
3.618118e-01
3.474107e-01
3.465547e-01
3.813925e-01
3.640070e-01
3.457082e-01
4.532370e-01
4.391898e-01
4.243354e-01
4.107589e-01
4.746369e-01
4.708385e-01
4.633172e-01
4.750020e-01
4.692458e-01
4.609016e-01
4.513675e-01
4.403598e-01
4.260469e-01
4.089188e-01
3.956925e-01
3.798212e-01
3.626552e-01
3.449015e-01
3.783184e-01
3.612774e-01
3.444745e-01
4.752965e-01
4.721492e-01
4.644456e-01
3.433871e-01
4.748254e-01
4.685752e-01
4.615394e-01
4.548387e-01
4.438551e-01
4.303288e-01
4.125742e-01
3.928887e-01
3.749208e-01
3.611822e-01
3.452832e-01
4.877043e-01
4.879748e-01
4.882605e-01
4.882759e-01
4.883886e-01
4.883013e-01
4.883212e-01
4.883444e-01
4.882602e-01
4.883418e-01
4.882726e-01
4.883455e-01
4.882626e-01
4.883249e-01
4.883056e-01
4.882438e-01
4.883058e-01
4.882638e-01
4.883362e-01
4.883397e-01
4.883175e-01
4.883049e-01
4.883018e-01
4.881982e-01
4.883454e-01
4.883525e-01
4.882553e-01
4.882584e-01
4.882486e-01
4.883862e-01
4.883136e-01
4.883040e-01
-4.625929e-18
3.702915e-01
3.590652e-01
3.432356e-01
3.234309e-01
3.054403e-01
2.862308e-01
2.595987e-01
2.296581e-01
1.978986e-01
1.659313e-01
1.349887e-01
1.108503e-01
8.710845e-02
5.899132e-02
3.705372e-02
1.712910e-02
3.785927e-01
3.559521e-01
3.658632e-01
3.471023e-01
1.816585e-02
5.348418e-02
8.770249e-02
1.232363e-01
1.570239e-01
1.891255e-01
2.200200e-01
2.481893e-01
2.752389e-01
3.009773e-01
3.197855e-01
3.351067e-01
4.625929e-18
0.000000e+00
0.000000e+00
3.323780e-01
3.478355e-01
3.264078e-01
2.966913e-01
2.673439e-01
2.392504e-01
2.089980e-01
1.772876e-01
1.452310e-01
1.080119e-01
7.173222e-02
3.636082e-02
3.785927e-01
1.828091e-02
4.593262e-02
7.804807e-02
1.122266e-01
1.457139e-01
1.747707e-01
2.039361e-01
2.329705e-01
2.557647e-01
2.759229e-01
2.987549e-01
3.204016e-01
3.382824e-01
3.516908e-01
3.619642e-01
3.711975e-01
-4.625929e-18
0.000000e+00
0.000000e+00
5.782412e-18
3.311659e-01
3.105388e-01
2.867989e-01
2.587069e-01
2.255199e-01
1.961777e-01
1.681452e-01
1.362134e-01
1.063269e-01
7.618420e-02
4.494425e-02
1.771570e-02
3.471023e-01
3.659531e-01
3.558046e-01
2.578018e-02
6.126587e-02
9.316106e-02
1.249811e-01
1.560568e-01
1.856478e-01
2.146150e-01
2.486541e-01
2.799917e-01
3.039525e-01
3.250458e-01
3.469769e-01
-1.387779e-17
-1.387779e-17
-1.387779e-17
-1.387779e-17
-1.387779e-17
-1.387779e-17
-1.387779e-17
-1.387779e-17
-1.387779e-17
-1.387779e-17
-1.387779e-17
-1.387779e-17
-1.387779e-17
-1.387779e-17
-1.387779e-17
-1.387779e-17
-1.387779e-17
-1.387779e-17
-1.387779e-17
-1.387779e-17
-1.387779e-17
-1.387779e-17
-1.387779e-17
-1.387779e-17
-1.387779e-17
-1.387779e-17
-1.387779e-17
-1.387779e-17
-1.387779e-17
-1.387779e-17
-1.387779e-17
-1.387779e-17
-1.387779e-17
3.785927e-01
3.785927e-01
3.785927e-01
3.785927e-01
3.785927e-01
3.785927e-01
3.785927e-01
3.785927e-01
3.785927e-01
3.785927e-01
3.785927e-01
3.785927e-01
3.785927e-01
3.785927e-01
3.785927e-01
3.785927e-01
3.785927e-01
3.785927e-01
3.785927e-01
3.785927e-01
3.785927e-01
3.785927e-01
3.785927e-01
3.785927e-01
3.785927e-01
3.785927e-01
3.785927e-01
3.785927e-01
3.785927e-01
3.785927e-01
3.785927e-01
3.785927e-01
3.785927e-01
2.240294e-01
2.410729e-01
2.178652e-01
2.609143e-01
2.355153e-01
2.505468e-01
2.045593e-01
1.962579e-01
2.474084e-01
2.168067e-01
2.325894e-01
2.064684e-01
2.281984e-01
2.020661e-01
3.645769e-01
2.481903e-01
2.233625e-01
1.978904e-01
2.559081e-01
2.417971e-01
2.281490e-01
1.968600e-01
1.527454e-01
2.362914e-01
2.496679e-01
2.239240e-01
2.009978e-01
1.792453e-01
1.355995e-01
1.308773e-01
1.464265e-01
1.261774e-01
1.056521e-01
9.527329e-02
3.573077e-01
3.513702e-01
3.609285e-01
3.681502e-01
3.475475e-01
3.427353e-01
3.340601e-01
3.314362e-01
3.241550e-01
3.173733e-01
3.234154e-01
3.094245e-01
3.102455e-01
3.044251e-01
2.983250e-01
2.948839e-01
2.905876e-01
2.889252e-01
2.836022e-01
2.770853e-01
2.812793e-01
2.740348e-01
2.666351e-01
2.696355e-01
2.603991e-01
2.538623e-01
1.697465e-01
1.716010e-01
3.353186e-01
3.457965e-01
3.554848e-01
3.658274e-01
1.843662e-01
1.968828e-01
2.128195e-01
2.300659e-01
1.922379e-01
2.055260e-01
1.585204e-01
1.622513e-01
1.697406e-01
1.790721e-01
3.469539e-01
3.317732e-01
3.260685e-01
3.102985e-01
3.067503e-01
3.125896e-01
2.814278e-01
2.823538e-01
2.909429e-01
2.976334e-01
2.508181e-01
2.251558e-01
2.560183e-01
2.699405e-01
2.701395e-01
2.826835e-01
5.083020e-02
7.375082e-02
7.479397e-02
9.941587e-02
9.866096e-02
1.217523e-01
1.250098e-01
1.244726e-01
1.484847e-01
3.172358e-01
3.291866e-01
3.402370e-01
3.508353e-01
3.607144e-01
1.439610e-01
1.502634e-01
1.509567e-01
1.951005e-01
1.714077e-01
1.787952e-01
1.754406e-01
1.716196e-01
1.654700e-01
2.683316e-01
2.395995e-01
2.122582e-01
1.839149e-01
1.970398e-01
2.487526e-01
2.213174e-01
3.687110e-01
3.670227e-01
3.574514e-01
3.681302e-01
3.657395e-01
3.538535e-01
3.442387e-01
3.574253e-01
3.496300e-01
3.386645e-01
3.282964e-01
3.667785e-01
3.558290e-01
3.446480e-01
3.338211e-01
3.213090e-01
3.089117e-01
3.689169e-01
3.628658e-01
3.530500e-01
3.418300e-01
3.297093e-01
3.166081e-01
3.011746e-01
2.855020e-01
2.665770e-01
3.669648e-01
3.569618e-01
3.478881e-01
3.383835e-01
3.264310e-01
3.129286e-01
2.982883e-01
2.773419e-01
2.614258e-01
2.497391e-01
2.976097e-01
3.108013e-01
3.230170e-01
3.343628e-01
3.455115e-01
3.572628e-01
3.657209e-01
3.153612e-02
1.944691e-02
5.968563e-02
4.264020e-02
2.307446e-02
8.866064e-02
6.923492e-02
4.894499e-02
2.594860e-02
1.353581e-01
1.157927e-01
9.679943e-02
7.682356e-02
5.460690e-02
2.927829e-02
1.874662e-01
1.620484e-01
1.417472e-01
1.244896e-01
1.058328e-01
8.497550e-02
6.147637e-02
3.405328e-02
1.371714e-01
1.102612e-01
7.248640e-02
4.364453e-02
2.104796e-01
3.174668e-02
1.845297e-01
1.639309e-01
1.520835e-01
1.356892e-01
1.162882e-01
9.499826e-02
7.159745e-02
4.336746e-02
3.683464e-01
3.576137e-01
3.445878e-01
3.296767e-01
3.125027e-01
2.931054e-01
2.716138e-01
2.483572e-01
2.235019e-01
1.962094e-01
1.635410e-01
1.335050e-01
1.027276e-01
7.014033e-02
3.671314e-02
3.677883e-01
2.746971e-01
2.907787e-01
3.042736e-01
3.157042e-01
3.275783e-01
3.394661e-01
3.501349e-01
3.599437e-01
3.558052e-01
3.420833e-01
3.264486e-01
3.086921e-01
2.888337e-01
2.669529e-01
2.431766e-01
2.174395e-01
1.894856e-01
1.597694e-01
1.295589e-01
9.855340e-02
6.660752e-02
3.372164e-02
3.670772e-01
3.543998e-01
3.400975e-01
3.239074e-01
3.056551e-01
2.853532e-01
2.630654e-01
2.388791e-01
2.128573e-01
1.851578e-01
1.561766e-01
1.262773e-01
9.558220e-02
6.418399e-02
3.221473e-02
3.665292e-01
3.533332e-01
3.385560e-01
3.219180e-01
3.032550e-01
2.825856e-01
2.599832e-01
2.355699e-01
2.094977e-01
1.819931e-01
1.533332e-01
1.237556e-01
9.344541e-02
6.257561e-02
3.134108e-02
3.661163e-01
3.525252e-01
3.373758e-01
3.203831e-01
3.013982e-01
2.804478e-01
2.576281e-01
2.330890e-01
2.070182e-01
1.796399e-01
1.511910e-01
1.218839e-01
9.191695e-02
6.147964e-02
3.077042e-02
3.658062e-01
3.519157e-01
3.364802e-01
3.192158e-01
2.999852e-01
2.788281e-01
2.558563e-01
2.312404e-01
2.051767e-01
1.778886e-01
1.495947e-01
1.205040e-01
2.117591e-01
1.916178e-01
1.729744e-01
1.560474e-01
1.371116e-01
1.167512e-01
9.568467e-02
7.349326e-02
5.063261e-02
2.938663e-02
1.382885e-02
9.081001e-02
6.070396e-02
3.037251e-02
3.655697e-01
3.514513e-01
3.357991e-01
3.183273e-01
2.989103e-01
2.775956e-01
2.545122e-01
2.298382e-01
2.037804e-01
1.765555e-01
1.483809e-01
1.194563e-01
8.997475e-02
6.011776e-02
3.006865e-02
3.653792e-01
3.510868e-01
3.352673e-01
3.176317e-01
2.980615e-01
2.766179e-01
2.534384e-01
2.287144e-01
2.026525e-01
1.754745e-01
1.473897e-01
1.185991e-01
8.928568e-02
2.452505e-01
2.690950e-01
2.855854e-01
2.945331e-01
3.069071e-01
3.200095e-01
3.325747e-01
3.436806e-01
3.546001e-01
3.646225e-01
5.962771e-02
2.980005e-02
3.652210e-01
3.507950e-01
3.348294e-01
3.170410e-01
2.973283e-01
2.757592e-01
2.524865e-01
2.277053e-01
2.016322e-01
1.744843e-01
1.464759e-01
1.178003e-01
8.864133e-02
5.916864e-02
2.955568e-02
3.651528e-01
3.505529e-01
3.344120e-01
3.164618e-01
2.965924e-01
2.748865e-01
2.515053e-01
2.266576e-01
2.005593e-01
1.734351e-01
1.454947e-01
1.169374e-01
8.794088e-02
5.867547e-02
2.930399e-02
3.649580e-01
3.502093e-01
3.339186e-01
3.157891e-01
2.957337e-01
2.738590e-01
2.503484e-01
2.254151e-01
1.992824e-01
1.721734e-01
1.443073e-01
1.158820e-01
8.708010e-02
5.806628e-02
2.899630e-02
3.647204e-01
3.498340e-01
3.333242e-01
3.149281e-01
2.946181e-01
2.725322e-01
2.488640e-01
2.238288e-01
1.976469e-01
1.705518e-01
1.427685e-01
1.145058e-01
8.594360e-02
5.724687e-02
2.856634e-02
3.647138e-01
3.494433e-01
3.324998e-01
3.137154e-01
2.930803e-01
2.707524e-01
2.469093e-01
2.217508e-01
1.955043e-01
1.684174e-01
1.407367e-01
1.632230e-01
1.460294e-01
1.283673e-01
1.095874e-01
9.016731e-02
7.073591e-02
4.871895e-02
2.550556e-02
1.126760e-01
8.441473e-02
5.611392e-02
2.794448e-02
3.642877e-01
3.485519e-01
3.311272e-01
3.119061e-01
2.909476e-01
2.683921e-01
2.443593e-01
2.190414e-01
1.927009e-01
1.656216e-01
1.380720e-01
1.102647e-01
8.237232e-02
5.456244e-02
2.707903e-02
3.634417e-01
3.469811e-01
3.289633e-01
3.093043e-01
2.881388e-01
2.654084e-01
2.411115e-01
2.155405e-01
1.890710e-01
1.620237e-01
1.346646e-01
1.071340e-01
7.966215e-02
1.805325e-01
5.246952e-02
2.598334e-02
3.622374e-01
3.443296e-01
3.255907e-01
3.058435e-01
2.848835e-01
2.618592e-01
2.370007e-01
2.109915e-01
1.844162e-01
1.575646e-01
1.305302e-01
1.030275e-01
7.589831e-02
4.975816e-02
2.506409e-02
3.606230e-01
3.462847e-01
3.250413e-01
3.006672e-01
3.599050e-01
3.383554e-01
3.203094e-01
3.029427e-01
2.817737e-01
2.576443e-01
2.315992e-01
2.048517e-01
1.784989e-01
1.526245e-01
1.262794e-01
9.669506e-02
6.929467e-02
4.855447e-02
2.573330e-02
2.170734e-02
2.677641e-02
4.537449e-02
2.134995e-02
1.508296e-01
1.352695e-01
1.185500e-01
1.008436e-01
8.237491e-02
6.400168e-02
4.842224e-02
2.401854e-02
3.583410e-02
5.410090e-02
7.076462e-02
2.670281e-02
4.631543e-02
6.377124e-02
8.097922e-02
9.700153e-02
3.562352e-02
5.483632e-02
7.342026e-02
9.114104e-02
1.079349e-01
1.231014e-01
3.471023e-01
3.471023e-01
3.471023e-01
3.471023e-01
3.471023e-01
3.471023e-01
3.471023e-01
3.471023e-01
3.471023e-01
3.471023e-01
3.471023e-01
3.471023e-01
3.471023e-01
3.471023e-01
3.471023e-01
3.471023e-01
3.471023e-01
3.471023e-01
3.471023e-01
3.471023e-01
3.471023e-01
3.471023e-01
3.471023e-01
3.471023e-01
3.471023e-01
3.471023e-01
3.471023e-01
3.471023e-01
3.471023e-01
3.471023e-01
3.471023e-01
3.471023e-01
3.471023e-01
3.576832e-01
3.678371e-01
3.630517e-01
3.576562e-01
3.679909e-01
3.576926e-01
3.680142e-01
3.576912e-01
3.680202e-01
3.576044e-01
3.680311e-01
3.628732e-01
3.618360e-01
3.578111e-01
3.679975e-01
3.577813e-01
3.679457e-01
3.576954e-01
3.678307e-01
3.661032e-01
3.575932e-01
3.676738e-01
3.577993e-01
3.680510e-01
3.574402e-01
3.674679e-01
3.575879e-01
3.687896e-01
3.575389e-01
3.678426e-01
3.577543e-01
3.679936e-01
3.576372e-01
3.678878e-01
3.576894e-01
3.680109e-01
3.576927e-01
3.680167e-01
3.576874e-01
3.680264e-01
3.576759e-01
3.680282e-01
3.579454e-01
3.692656e-01
3.572160e-01
3.676146e-01
3.580040e-01
3.691325e-01
3.574261e-01
3.682666e-01
3.570897e-01
3.678324e-01
3.680365e-01
3.578304e-01
3.582229e-01
3.683990e-01
3.578145e-01
3.679715e-01
3.577940e-01
3.679593e-01
1.734723e-17
1.734723e-17
1.734723e-17
1.734723e-17
1.734723e-17
1.734723e-17
1.734723e-17
1.734723e-17
1.734723e-17
1.734723e-17
1.734723e-17
1.734723e-17
1.734723e-17
1.734723e-17
1.734723e-17
1.734723e-17
1.734723e-17
1.734723e-17
1.734723e-17
1.734723e-17
1.734723e-17
1.734723e-17
1.734723e-17
1.734723e-17
1.734723e-17
1.734723e-17
1.734723e-17
1.734723e-17
1.734723e-17
1.734723e-17
1.734723e-17
1.734723e-17
1.734723e-17
1.685435e-01
2.259826e-01
2.215845e-01
1.834704e-01
1.976543e-01
1.669461e-01
5.779471e-02
2.788299e-01
1.394460e-01
8.318896e-02
8.694740e-02
1.117712e-01
1.022941e-01
1.293569e-01
1.461192e-01
1.246639e-01
1.421927e-01
1.621912e-01
1.676588e-01
1.775530e-01
1.701840e-01
1.936899e-01
3.741138e-02
2.418647e-02
2.009703e-01
1.964487e-01
1.962863e-01
2.025394e-01
2.432562e-01
2.193776e-01
2.364651e-01
2.569640e-01
2.506838e-01
2.616878e-01
2.859612e-01
1.866673e-01
2.104619e-01
2.358687e-01
2.515813e-01
2.545991e-01
2.540364e-01
2.598894e-01
1.606910e-01
1.922449e-01
2.177289e-01
1.917082e-01
2.162983e-01
2.431418e-01
2.629635e-01
7.022964e-02
5.228201e-02
3.047597e-02
2.662090e-01
3.084421e-01
2.888924e-01
2.872653e-01
2.452742e-01
2.612528e-01
2.654695e-01
2.225344e-01
2.284120e-01
2.372479e-01
2.449758e-01
1.959715e-01
2.049681e-01
2.160248e-01
2.259459e-01
4.536171e-02
7.047181e-02
1.183244e-01
1.165019e-01
1.641619e-01
1.662700e-01
1.479730e-01
1.344571e-01
2.095692e-01
1.840650e-01
1.528162e-01
2.156976e-02
2.128347e-02
2.040343e-02
2.101147e-02
2.213694e-02
2.101938e-02
2.209630e-02
2.290480e-02
1.042342e-01
8.553380e-02
6.561546e-02
4.309096e-02
2.483510e-02
1.856879e-02
1.545421e-02
1.911471e-02
1.741572e-02
2.358306e-02
6.319584e-02
3.392155e-02
3.704786e-02
5.287379e-02
7.176353e-02
9.048911e-02
2.363871e-02
4.294521e-02
6.444039e-02
8.368583e-02
1.033550e-01
1.202425e-01
2.859874e-02
5.251509e-02
7.385615e-02
9.407241e-02
1.144578e-01
1.382895e-01
1.471210e-01
3.289946e-01
3.091283e-01
3.282790e-01
2.707399e-01
2.892986e-01
3.083622e-01
3.276030e-01
2.483629e-01
2.679964e-01
2.871966e-01
3.062301e-01
1.382700e-01
1.195238e-01
1.002866e-01
8.001526e-02
5.011246e-02
2.941426e-02
3.258458e-01
3.512398e-02
6.344433e-02
9.462594e-02
1.268601e-01
1.626315e-01
1.941614e-01
2.238104e-01
2.503015e-01
2.757071e-01
3.051038e-01
3.232335e-01
1.965294e-01
2.225155e-01
2.451076e-01
2.647861e-01
2.833175e-01
3.015888e-01
3.214082e-01
3.290145e-01
2.628133e-01
2.935599e-01
3.162078e-01
1.399771e-01
1.742157e-01
1.990059e-01
2.256054e-01
3.869299e-02
6.624280e-02
1.011668e-01
3.454688e-02
7.239972e-02
1.067410e-01
1.361204e-01
1.712113e-01
1.981202e-01
2.200655e-01
2.452030e-01
2.714996e-01
2.971441e-01
3.218764e-01
2.763212e-01
3.007112e-01
3.244103e-01
1.385145e-01
1.732364e-01
1.997729e-01
2.287530e-01
3.029545e-02
5.796951e-02
9.784028e-02
3.728945e-02
7.860026e-02
2.067738e-01
2.325293e-01
2.519439e-01
2.707801e-01
2.896831e-01
3.085966e-01
3.254206e-01
3.371829e-01
1.089852e-01
1.300605e-01
1.590920e-01
1.999862e-01
2.328934e-01
2.548348e-01
2.788296e-01
3.026718e-01
3.255497e-01
2.796323e-01
3.035565e-01
3.260690e-01
1.272133e-01
1.597278e-01
1.939937e-01
2.254654e-01
3.776832e-02
6.932171e-02
1.009221e-01
3.195808e-02
6.547369e-02
1.000940e-01
1.322313e-01
1.672202e-01
1.965082e-01
2.271847e-01
2.541789e-01
2.799613e-01
3.040426e-01
3.263668e-01
2.805123e-01
1.715233e-01
3.045799e-01
3.266650e-01
3.628278e-02
7.314172e-02
1.060129e-01
1.365812e-01
1.660137e-01
1.923410e-01
2.229731e-01
2.556941e-01
2.817408e-01
3.053924e-01
3.270750e-01
1.468784e-01
1.761206e-01
2.010122e-01
2.299369e-01