VARIABLES = "X" "Y" "Z" "FREF"
ZONE T="instant 123"
STRANDID=0, SOLUTIONTIME=0
Nodes=1047, Elements=2090
ZONETYPE=FETriangle
DATAPACKING=BLOCK
VARLOCATION = ([1-3]=NODAL, [4]=CELLCENTERED)
5.000000e-01
3.559576e-01
3.698602e-01
3.851565e-01
4.015186e-01
4.185059e-01
4.354613e-01
4.511670e-01
4.644692e-01
4.752332e-01
4.839385e-01
4.907156e-01
4.955065e-01
4.984194e-01
4.997427e-01
3.448000e-01
3.448000e-01
4.940861e-01
4.919888e-01
4.881553e-01
4.823239e-01
4.745766e-01
4.650338e-01
4.533013e-01
4.387827e-01
4.222927e-01
4.053378e-01
3.886478e-01
3.729727e-01
3.579212e-01
4.948000e-01
3.448000e-01
4.992970e-01
4.971527e-01
4.931027e-01
4.866511e-01
4.781143e-01
4.681519e-01
4.560700e-01
4.427055e-01
4.281585e-01
4.117673e-01
3.935200e-01
3.748688e-01
3.578163e-01
5.000000e-01
4.948000e-01
3.616267e-01
3.793730e-01
3.982995e-01
4.162846e-01
4.311489e-01
4.448663e-01
4.577793e-01
4.688747e-01
4.777579e-01
4.850767e-01
4.902617e-01
4.932518e-01
4.945562e-01
3.448000e-01
5.000000e-01
5.000000e-01
5.000000e-01
5.000000e-01
5.000000e-01
5.000000e-01
5.000000e-01
5.000000e-01
5.000000e-01
5.000000e-01
5.000000e-01
5.000000e-01
5.000000e-01
5.000000e-01
5.000000e-01
5.000000e-01
5.000000e-01
5.000000e-01
5.000000e-01
5.000000e-01
5.000000e-01
5.000000e-01
5.000000e-01
5.000000e-01
5.000000e-01
5.000000e-01
5.000000e-01
5.000000e-01
5.000000e-01
5.000000e-01
5.000000e-01
5.000000e-01
5.000000e-01
3.448000e-01
3.448000e-01
3.448000e-01
3.448000e-01
3.448000e-01
3.448000e-01
3.448000e-01
3.448000e-01
3.448000e-01
3.448000e-01
3.448000e-01
3.448000e-01
3.448000e-01
3.448000e-01
3.448000e-01
3.448000e-01
3.448000e-01
3.448000e-01
3.448000e-01
3.448000e-01
3.448000e-01
3.448000e-01
3.448000e-01
3.448000e-01
3.448000e-01
3.448000e-01
3.448000e-01
3.448000e-01
3.448000e-01
3.448000e-01
3.448000e-01
3.448000e-01
3.448000e-01
4.467542e-01
4.491855e-01
4.622807e-01
4.556265e-01
4.548596e-01
4.586659e-01
4.596995e-01
4.443735e-01
4.548059e-01
4.387376e-01
4.610524e-01
4.416155e-01
4.550964e-01
4.672011e-01
3.621885e-01
4.848165e-01
4.842337e-01
4.907404e-01
4.954327e-01
3.869473e-01
3.995943e-01
4.034193e-01
4.111272e-01
4.156278e-01
4.192564e-01
4.218939e-01
4.267337e-01
3.765986e-01
3.632348e-01
4.310090e-01
4.341352e-01
4.321771e-01
4.366569e-01
4.413747e-01
4.457328e-01
4.474917e-01
4.735444e-01
4.753070e-01
4.684309e-01
4.605077e-01
4.579877e-01
4.839429e-01
4.780434e-01
4.755017e-01
4.684607e-01
3.941534e-01
3.997125e-01
4.182851e-01
4.105701e-01
4.410288e-01
4.375028e-01
4.274431e-01
4.196060e-01
4.530497e-01
3.930045e-01
3.824070e-01
3.703639e-01
3.606983e-01
4.452513e-01
4.335407e-01
4.291153e-01
4.976725e-01
4.944810e-01
4.902820e-01
4.896604e-01
4.853564e-01
4.829792e-01
4.840932e-01
4.746316e-01
4.761446e-01
4.779204e-01
4.794368e-01
4.648504e-01
4.663600e-01
4.687763e-01
4.714922e-01
4.702218e-01
4.653780e-01
4.461289e-01
4.572425e-01
3.585466e-01
3.636332e-01
3.633830e-01
3.751828e-01
3.848206e-01
3.600794e-01
3.699299e-01
3.821112e-01
3.935116e-01
4.055051e-01
4.204150e-01
3.672454e-01
4.099667e-01
4.001402e-01
3.894965e-01
3.789619e-01
3.689685e-01
3.777669e-01
3.886836e-01
3.999229e-01
4.109661e-01
4.222208e-01
4.336166e-01
3.586484e-01
3.703262e-01
3.832719e-01
3.947536e-01
4.058285e-01
4.165859e-01
4.267490e-01
4.351447e-01
4.488491e-01
4.987283e-01
4.995515e-01
4.958855e-01
4.979384e-01
4.994137e-01
4.913273e-01
4.947316e-01
4.973815e-01
4.992525e-01
4.995733e-01
4.800610e-01
4.852651e-01
4.898260e-01
4.936776e-01
4.966572e-01
4.990370e-01
4.789736e-01
4.883626e-01
4.935563e-01
4.976172e-01
4.615042e-01
4.709864e-01
4.771243e-01
4.825162e-01
4.886637e-01
4.913180e-01
4.956292e-01
4.980586e-01
4.991067e-01
3.572675e-01
3.730980e-01
3.902640e-01
4.066136e-01
4.221479e-01
4.365736e-01
4.495273e-01
4.613620e-01
4.270584e-01
4.171530e-01
4.069901e-01
3.965976e-01
3.859701e-01
3.737246e-01
3.625155e-01
4.720447e-01
4.815497e-01
4.891575e-01
4.947479e-01
4.985310e-01
3.605952e-01
3.768401e-01
3.931912e-01
4.092033e-01
4.245063e-01
4.387900e-01
4.518928e-01
4.637559e-01
4.742105e-01
4.831017e-01
4.902231e-01
4.955118e-01
4.988504e-01
3.617208e-01
3.785878e-01
3.951131e-01
4.111171e-01
4.263707e-01
4.406281e-01
4.536980e-01
4.654115e-01
4.756046e-01
4.841520e-01
4.909549e-01
4.959332e-01
4.989805e-01
3.625695e-01
3.797427e-01
3.964128e-01
4.124801e-01
4.277383e-01
4.419663e-01
4.549507e-01
4.665121e-01
4.765038e-01
4.848243e-01
4.913980e-01
4.961573e-01
4.990377e-01
3.629202e-01
3.803751e-01
3.972330e-01
4.133869e-01
4.286662e-01
4.428599e-01
4.557658e-01
4.672091e-01
4.601522e-01
4.683986e-01
4.749545e-01
4.811159e-01
4.868063e-01
4.912663e-01
4.947368e-01
4.976166e-01
4.994177e-01
4.770605e-01
4.852295e-01
4.916523e-01
4.962780e-01
4.990676e-01
3.630152e-01
3.807401e-01
3.977518e-01
4.139704e-01
4.292561e-01
4.434192e-01
4.562640e-01
4.676273e-01
4.773872e-01
4.854616e-01
4.917943e-01
4.963445e-01
4.990850e-01
3.633412e-01
3.811051e-01
3.981255e-01
4.143422e-01
4.296140e-01
4.437475e-01
4.565511e-01
4.678636e-01
4.775690e-01
4.855890e-01
4.918712e-01
4.963808e-01
4.990945e-01
3.635586e-01
4.450137e-01
4.331695e-01
4.234296e-01
4.134257e-01
4.033531e-01
3.927751e-01
3.825097e-01
3.726422e-01
3.813475e-01
3.983555e-01
4.145596e-01
4.298141e-01
4.439284e-01
4.567062e-01
4.679904e-01
4.776659e-01
4.856565e-01
4.919126e-01
4.964005e-01
4.990999e-01
3.635758e-01
3.814221e-01
3.984553e-01
4.146616e-01
4.299151e-01
4.440204e-01
4.567876e-01
4.680573e-01
4.777177e-01
4.856936e-01
4.919357e-01
4.964122e-01
4.991030e-01
3.635877e-01
3.814414e-01
3.984804e-01
4.146996e-01
4.299611e-01
4.440713e-01
4.568354e-01
4.680994e-01
4.777516e-01
4.857188e-01
4.919526e-01
4.964211e-01
4.991058e-01
3.635988e-01
3.814044e-01
3.984587e-01
4.147109e-01
4.299976e-01
4.441188e-01
4.568850e-01
4.681437e-01
4.777884e-01
4.857468e-01
4.919717e-01
4.964318e-01
4.991093e-01
3.633965e-01
3.812821e-01
3.984366e-01
4.147536e-01
4.300756e-01
4.442087e-01
4.569713e-01
4.682193e-01
4.778491e-01
4.857922e-01
4.920018e-01
4.964483e-01
4.991147e-01
3.633055e-01
3.813049e-01
3.985492e-01
4.149230e-01
4.302664e-01
4.443968e-01
4.571409e-01
4.717089e-01
4.780904e-01
4.836429e-01
4.885258e-01
4.925615e-01
4.956036e-01
4.975399e-01
4.994078e-01
4.683616e-01
4.779621e-01
4.858743e-01
4.920551e-01
4.964757e-01
4.991231e-01
3.635584e-01
3.816224e-01
3.989140e-01
4.153119e-01
4.306537e-01
4.447538e-01
4.574509e-01
4.686191e-01
4.781640e-01
4.860220e-01
4.921491e-01
4.965225e-01
4.991351e-01
3.639518e-01
3.821989e-01
3.995832e-01
4.160188e-01
4.313331e-01
4.453621e-01
4.579710e-01
4.690478e-01
4.785038e-01
4.862723e-01
4.923131e-01
4.966058e-01
4.991580e-01
3.644756e-01
3.830886e-01
4.006929e-01
4.171849e-01
4.324205e-01
4.463059e-01
4.587679e-01
4.697074e-01
4.790303e-01
4.866709e-01
4.925830e-01
4.967522e-01
4.992035e-01
3.652017e-01
3.845700e-01
4.025394e-01
4.190199e-01
4.340098e-01
4.476364e-01
4.598921e-01
4.706399e-01
4.797833e-01
4.872572e-01
4.810548e-01
4.861020e-01
4.904163e-01
4.939599e-01
4.967088e-01
4.986372e-01
4.930038e-01
4.969899e-01
4.992811e-01
3.664996e-01
3.875126e-01
4.056804e-01
4.216494e-01
4.360325e-01
4.493520e-01
4.613696e-01
4.718501e-01
4.807612e-01
4.880587e-01
4.936440e-01
4.973694e-01
4.994002e-01
3.637847e-01
3.838866e-01
4.079378e-01
4.263179e-01
3.694533e-01
3.941748e-01
4.106176e-01
4.241235e-01
4.383161e-01
4.515182e-01
4.632104e-01
4.732333e-01
4.818888e-01
4.890342e-01
4.947148e-01
4.980335e-01
4.994685e-01
4.994774e-01
4.991659e-01
4.975661e-01
4.994877e-01
4.985155e-01
4.965700e-01
4.939436e-01
4.992200e-01
4.976055e-01
4.953342e-01
4.922500e-01
4.884596e-01
3.448000e-01
3.448000e-01
3.448000e-01
3.448000e-01
3.448000e-01
3.448000e-01
3.448000e-01
3.448000e-01
3.448000e-01
3.448000e-01
3.448000e-01
3.448000e-01
3.448000e-01
3.448000e-01
3.448000e-01
3.448000e-01
3.448000e-01
3.448000e-01
3.448000e-01
3.448000e-01
3.448000e-01
3.448000e-01
3.448000e-01
3.448000e-01
3.448000e-01
3.448000e-01
3.448000e-01
3.448000e-01
3.448000e-01
3.448000e-01
3.448000e-01
3.448000e-01
3.448000e-01
4.948000e-01
4.948000e-01
4.948000e-01
4.948000e-01
4.948000e-01
4.948000e-01
4.948000e-01
4.948000e-01
4.948000e-01
4.948000e-01
4.948000e-01
4.948000e-01
4.948000e-01
4.948000e-01
4.948000e-01
4.948000e-01
4.948000e-01
4.948000e-01
4.948000e-01
4.948000e-01
4.948000e-01
4.948000e-01
4.948000e-01
4.948000e-01
4.948000e-01
4.948000e-01
4.948000e-01
4.948000e-01
4.948000e-01
4.948000e-01
4.948000e-01
4.948000e-01
4.948000e-01
4.468651e-01
4.630328e-01
4.407438e-01
4.397654e-01
4.398662e-01
4.528816e-01
4.389036e-01
4.508288e-01
4.920816e-01
4.898033e-01
4.882184e-01
4.847954e-01
4.822748e-01
4.783664e-01
4.762608e-01
4.739872e-01
4.724582e-01
4.672428e-01
4.664902e-01
4.628880e-01
4.600161e-01
4.571895e-01
4.933856e-01
4.942411e-01
4.562996e-01
4.536399e-01
4.513835e-01
4.481230e-01
4.495791e-01
4.289040e-01
4.378801e-01
4.280241e-01
4.192333e-01
4.231603e-01
4.163287e-01
4.074618e-01
4.037848e-01
3.886430e-01
4.551502e-01
4.447784e-01
4.315695e-01
4.765501e-01
4.666751e-01
4.554383e-01
4.442898e-01
4.539511e-01
4.421333e-01
4.266078e-01
4.792245e-01
4.902614e-01
4.922261e-01
4.939039e-01
4.189372e-01
4.786920e-01
4.151660e-01
4.780474e-01
4.157980e-01
4.769564e-01
4.672869e-01
4.560401e-01
4.440956e-01
4.535093e-01
4.417577e-01
4.266442e-01
4.768433e-01
4.162621e-01
4.899234e-01
4.849058e-01
4.845708e-01
4.757946e-01
4.763485e-01
4.801019e-01
4.611134e-01
4.670264e-01
4.710753e-01
4.744580e-01
4.451630e-01
4.538168e-01
4.600014e-01
4.652396e-01
4.656244e-01
3.812649e-01
3.819808e-01
3.983693e-01
3.993505e-01
3.975488e-01
4.850262e-01
4.881001e-01
4.908747e-01
4.930147e-01
4.941701e-01
4.294121e-01
4.183418e-01
4.147521e-01
4.113354e-01
4.383900e-01
4.314505e-01
4.269658e-01
4.240390e-01
4.603632e-01
4.362443e-01
4.473449e-01
4.561495e-01
4.942836e-01
4.940469e-01
4.923339e-01
4.937624e-01
4.914846e-01
4.883518e-01
4.738214e-01
4.942725e-01
4.931642e-01
4.906331e-01
4.867773e-01
4.812756e-01
4.945995e-01
4.941313e-01
4.925835e-01
4.898731e-01
4.855699e-01
4.800092e-01
4.715724e-01
4.664827e-01
3.636127e-01
3.816134e-01
3.653149e-01
4.765311e-01
4.814549e-01
4.856552e-01
4.891951e-01
4.919618e-01
4.939820e-01
4.103634e-01
3.976711e-01
3.836998e-01
3.693561e-01
3.585309e-01
4.381848e-01
4.254272e-01
4.131193e-01
4.001541e-01
3.868057e-01
3.738332e-01
3.605569e-01
4.939130e-01
4.914040e-01
4.869640e-01
4.805699e-01
4.724199e-01
4.633880e-01
4.527789e-01
4.380961e-01
4.234141e-01
4.068913e-01
3.884533e-01
3.687356e-01
4.492749e-01
4.391267e-01
4.274415e-01
4.153736e-01
4.028109e-01
3.892465e-01
3.758949e-01
3.644117e-01
4.160945e-01
3.987411e-01
3.778499e-01
4.937985e-01
4.907669e-01
4.857449e-01
4.790449e-01
4.710935e-01
4.620598e-01
4.515846e-01
4.396147e-01
4.257053e-01
4.097478e-01
3.913662e-01
3.696645e-01
4.933837e-01
4.912027e-01
4.851203e-01
4.936000e-01
4.898445e-01
4.839919e-01
4.777396e-01
4.692713e-01
4.592012e-01
4.478983e-01
4.352667e-01
4.208223e-01
4.043154e-01
3.861787e-01
3.662471e-01
4.941352e-01
4.923971e-01
4.888627e-01
4.827343e-01
4.742145e-01
4.627523e-01
4.490868e-01
4.334861e-01
4.156169e-01
3.995114e-01
3.844869e-01
3.644070e-01
4.061009e-01
3.873658e-01
3.706574e-01
4.940634e-01
4.916272e-01
4.872330e-01
4.808035e-01
4.724435e-01
4.624761e-01
4.507654e-01
4.372979e-01
4.218181e-01
4.047553e-01
3.868845e-01
3.673726e-01
4.691962e-01
4.580264e-01
4.493336e-01
4.688999e-01
4.354871e-01
4.939747e-01
4.917978e-01
4.868889e-01
4.939161e-01
4.908070e-01
4.855236e-01
4.795741e-01
4.710027e-01
4.603701e-01
4.469147e-01
4.325967e-01
4.194456e-01
4.033393e-01
3.855305e-01
3.660899e-01
4.022433e-01
3.844220e-01
3.652555e-01
4.938978e-01
4.909715e-01
4.857757e-01
4.788245e-01
4.713525e-01
4.598566e-01
4.461781e-01
4.322261e-01
4.171808e-01
4.009890e-01
3.834861e-01
3.646194e-01
4.714709e-01
4.612228e-01
4.443212e-01
4.278906e-01
4.938499e-01
4.913568e-01
4.860610e-01
4.457662e-01
4.329395e-01
4.206081e-01
4.077988e-01
3.944790e-01
3.804667e-01
3.665404e-01
4.937716e-01
4.902223e-01
4.843623e-01
4.783005e-01
4.686277e-01
4.544809e-01
4.419356e-01
4.298596e-01
4.156097e-01
4.000711e-01
3.829502e-01
3.644805e-01
3.997420e-01
3.826605e-01
3.642915e-01
4.701345e-01
4.608239e-01
4.461870e-01
4.293250e-01
4.937432e-01
4.909589e-01
4.856533e-01
4.937697e-01
4.901622e-01
4.843224e-01
4.781668e-01
4.685628e-01
4.558095e-01
4.447743e-01
4.315644e-01
4.157837e-01
3.997160e-01
3.823036e-01
3.637973e-01
3.994093e-01
3.816904e-01
3.633367e-01
4.939375e-01
4.916234e-01
3.626075e-01
4.850525e-01
4.934550e-01
4.890419e-01
4.836651e-01
4.779127e-01
4.709887e-01
4.610001e-01
4.488839e-01
4.337085e-01
4.162589e-01
3.983120e-01
3.801220e-01
3.622727e-01
4.942104e-01
4.924404e-01
4.889269e-01
4.827441e-01
4.742485e-01
4.626715e-01
4.490221e-01
4.325947e-01
4.137677e-01
3.951471e-01
3.762247e-01
3.593915e-01
4.093326e-01
3.900572e-01
3.662974e-01
4.940010e-01
4.914454e-01
4.870476e-01
4.596613e-01
4.661330e-01
4.720674e-01
4.778387e-01
4.830292e-01
4.872909e-01
4.909921e-01
4.937106e-01
4.943982e-01
4.805564e-01
4.717878e-01
4.613339e-01
4.497042e-01
4.367165e-01
4.220815e-01
4.052177e-01
3.862187e-01
3.656660e-01
4.675276e-01
4.564715e-01
4.450873e-01
4.317437e-01
4.940320e-01
4.906661e-01
4.284139e-01
4.164312e-01
4.036773e-01
3.903601e-01
3.770020e-01
3.625046e-01
4.844775e-01
4.935482e-01
4.901274e-01
4.856064e-01
4.786440e-01
4.694049e-01
4.569702e-01
4.447347e-01
4.332889e-01
4.187735e-01
4.020087e-01
3.835834e-01
3.642605e-01
3.991529e-01
3.813843e-01
3.635972e-01
4.926945e-01
4.884690e-01
4.831598e-01
4.934157e-01
4.887055e-01
4.822576e-01
4.756570e-01
4.658039e-01
4.550054e-01
4.443663e-01
4.303796e-01
4.129550e-01
3.949178e-01
3.804316e-01
3.632667e-01
3.623664e-01
3.754540e-01
3.656526e-01
3.807445e-01
3.938223e-01
3.601670e-01
4.113078e-01
3.989940e-01
3.855623e-01
3.715314e-01
-4.625929e-18
3.511327e-01
3.364572e-01
3.188330e-01
2.979644e-01
2.735925e-01
2.457101e-01
2.155188e-01
1.851171e-01
1.554138e-01
1.257120e-01
9.590749e-02
6.688251e-02
3.972567e-02
1.603966e-02
3.620952e-01
3.548803e-01
2.656965e-02
5.266963e-02
8.081715e-02
1.104116e-01
1.400146e-01
1.690284e-01
1.983558e-01
2.286849e-01
2.578680e-01
2.837752e-01
3.062351e-01
3.251436e-01
3.416423e-01
-3.469447e-18
3.620952e-01
2.650546e-02
5.328448e-02
8.276338e-02
1.147638e-01
1.463103e-01
1.755955e-01
2.049395e-01
2.324044e-01
2.582253e-01
2.836331e-01
3.084510e-01
3.308677e-01
3.492384e-01
-4.625929e-18
-2.312965e-18
3.377176e-01
3.176525e-01
2.935720e-01
2.674587e-01
2.427708e-01
2.166126e-01
1.877902e-01
1.580619e-01
1.287417e-01
9.760955e-02
6.686185e-02
3.911192e-02
1.553061e-02
3.548803e-01
-1.387779e-17
-1.387779e-17
-1.387779e-17
-1.387779e-17
-1.387779e-17
-1.387779e-17
-1.387779e-17
-1.387779e-17
-1.387779e-17
-1.387779e-17
-1.387779e-17
-1.387779e-17
-1.387779e-17
-1.387779e-17
-1.387779e-17
-1.387779e-17
-1.387779e-17
-1.387779e-17
-1.387779e-17
-1.387779e-17
-1.387779e-17
-1.387779e-17
-1.387779e-17
-1.387779e-17
-1.387779e-17
-1.387779e-17
-1.387779e-17
-1.387779e-17
-1.387779e-17
-1.387779e-17
-1.387779e-17
-1.387779e-17
-1.387779e-17
3.620952e-01
3.620952e-01
3.620952e-01
3.620952e-01
3.620952e-01
3.620952e-01
3.620952e-01
3.620952e-01
3.620952e-01
3.620952e-01
3.620952e-01
3.620952e-01
3.620952e-01
3.620952e-01
3.620952e-01
3.620952e-01
3.620952e-01
3.620952e-01
3.620952e-01
3.620952e-01
3.620952e-01
3.620952e-01
3.620952e-01
3.620952e-01
3.620952e-01
3.620952e-01
3.620952e-01
3.620952e-01
3.620952e-01
3.620952e-01
3.620952e-01
3.620952e-01
3.620952e-01
2.245233e-01
2.196188e-01
1.905165e-01
2.059236e-01
2.076121e-01
1.990618e-01
1.966630e-01
2.291991e-01
2.077296e-01
2.398109e-01
1.934701e-01
2.344692e-01
2.070924e-01
1.781098e-01
3.447020e-01
1.222822e-01
1.245703e-01
9.578006e-02
6.742727e-02
3.166572e-01
3.005402e-01
2.953860e-01
2.845601e-01
2.779452e-01
2.724409e-01
2.683385e-01
2.605732e-01
3.288974e-01
3.435993e-01
2.534388e-01
2.480457e-01
2.514418e-01
2.435791e-01
2.349221e-01
2.265441e-01
2.230498e-01
1.604858e-01
1.551877e-01
1.748499e-01
1.947631e-01
2.006171e-01
1.256952e-01
1.465418e-01
1.545903e-01
1.747702e-01
3.076412e-01
3.003829e-01
2.739299e-01
2.853633e-01
2.355708e-01
2.420563e-01
2.594078e-01
2.719022e-01
2.115325e-01
3.091075e-01
3.221256e-01
3.359026e-01
3.462611e-01
2.274891e-01
2.490833e-01
2.566321e-01
4.818775e-02
7.408435e-02
9.809959e-02
1.011567e-01
1.201213e-01
1.293486e-01
1.251151e-01
1.572415e-01
1.525985e-01
1.469426e-01
1.419167e-01
1.841579e-01
1.803006e-01
1.739219e-01
1.664186e-01
1.699748e-01
1.828204e-01
2.257631e-01
2.023099e-01
3.484887e-01
3.431776e-01
3.434425e-01
3.305115e-01
3.192383e-01
3.469046e-01
3.363806e-01
3.224764e-01
3.084618e-01
2.925160e-01
2.706497e-01
3.393093e-01
2.862294e-01
2.998130e-01
3.135164e-01
3.261715e-01
3.374348e-01
3.275548e-01
3.145235e-01
3.001027e-01
2.847927e-01
2.678238e-01
2.489511e-01
3.483838e-01
3.359442e-01
3.210961e-01
3.068707e-01
2.920672e-01
2.765072e-01
2.605481e-01
2.462703e-01
2.203054e-01
3.563841e-02
2.117384e-02
6.401232e-02
4.535755e-02
2.420702e-02
9.272240e-02
7.239247e-02
5.110433e-02
2.733017e-02
2.065277e-02
1.397907e-01
1.204897e-01
1.003517e-01
7.926189e-02
5.771990e-02
3.101697e-02
1.434724e-01
1.072471e-01
8.001383e-02
4.875578e-02
1.923900e-01
1.678447e-01
1.495072e-01
1.310652e-01
1.058667e-01
9.277214e-02
6.596716e-02
4.401880e-02
2.987555e-02
3.497998e-01
3.328632e-01
3.125605e-01
2.909731e-01
2.679387e-01
2.437283e-01
2.189182e-01
1.927307e-01
2.600406e-01
2.756509e-01
2.904463e-01
3.044837e-01
3.178475e-01
3.321595e-01
3.443581e-01
1.648448e-01
1.345730e-01
1.035613e-01
7.228082e-02
3.829902e-02
3.463685e-01
3.286207e-01
3.088700e-01
2.873198e-01
2.641863e-01
2.397151e-01
2.139928e-01
1.868968e-01
1.585067e-01
1.288905e-01
9.839342e-02
6.684318e-02
3.388582e-02
3.451928e-01
3.266057e-01
3.064076e-01
2.845746e-01
2.611666e-01
2.363194e-01
2.101382e-01
1.827352e-01
1.542734e-01
1.248873e-01
9.467485e-02
6.364188e-02
3.191381e-02
3.443013e-01
3.252621e-01
3.047243e-01
2.825955e-01
2.589207e-01
2.338072e-01
2.074124e-01
1.799068e-01
1.514732e-01
1.222513e-01
9.234736e-02
6.186991e-02
3.100658e-02
3.439315e-01
3.245224e-01
3.036543e-01
2.812672e-01
2.573815e-01
2.321102e-01
2.056150e-01
1.780888e-01
1.956016e-01
1.749364e-01
1.562632e-01
1.361156e-01
1.141035e-01
9.304541e-02
7.235648e-02
4.876235e-02
2.412442e-02
1.497107e-01
1.206329e-01
9.098340e-02
6.089421e-02
3.052059e-02
3.438313e-01
3.240940e-01
3.029744e-01
2.804077e-01
2.563966e-01
2.310398e-01
2.045071e-01
1.769880e-01
1.486656e-01
1.196954e-01
9.021313e-02
6.035041e-02
3.023500e-02
3.434868e-01
3.236648e-01
3.024833e-01
2.798580e-01
2.557964e-01
2.304087e-01
2.038653e-01
1.763624e-01
1.480805e-01
1.191777e-01
8.979269e-02
6.005059e-02
3.007714e-02
3.432567e-01
2.279535e-01
2.497283e-01
2.659085e-01
2.812102e-01
2.954763e-01
3.093990e-01
3.220036e-01
3.333733e-01
3.233792e-01
3.021802e-01
2.795359e-01
2.554601e-01
2.300599e-01
2.035176e-01
1.760255e-01
1.477677e-01
1.189022e-01
8.956581e-02
5.988747e-02
2.998880e-02
3.432384e-01
3.232911e-01
3.020486e-01
2.793845e-01
2.552901e-01
2.298824e-01
2.033348e-01
1.758475e-01
1.476000e-01
1.187505e-01
8.943851e-02
5.979086e-02
2.993601e-02
3.432259e-01
3.232684e-01
3.020155e-01
2.793282e-01
2.552126e-01
2.297840e-01
2.032274e-01
1.757355e-01
1.474903e-01
1.186474e-01
8.934549e-02
5.971639e-02
2.988991e-02
3.432141e-01
3.233120e-01
3.020441e-01
2.793115e-01
2.551511e-01
2.296922e-01
2.031161e-01
1.756175e-01
1.473712e-01
1.185330e-01
8.924056e-02
5.962758e-02
2.983205e-02
3.434283e-01
3.234563e-01
3.020733e-01
2.792480e-01
2.550196e-01
2.295183e-01
2.029218e-01
1.754158e-01
1.471741e-01
1.183467e-01
8.907415e-02
5.949012e-02
2.974138e-02
3.435246e-01
3.234294e-01
3.019247e-01
2.789962e-01
2.546975e-01
2.291539e-01
2.025395e-01
1.658033e-01
1.463885e-01
1.268446e-01
1.065014e-01
8.592516e-02
6.615970e-02
4.953816e-02
2.432897e-02
1.750354e-01
1.468069e-01
1.180091e-01
8.877941e-02
5.926078e-02
2.959997e-02
3.432569e-01
3.230547e-01
3.014425e-01
2.784170e-01
2.540420e-01
2.284602e-01
2.018381e-01
1.743449e-01
1.461480e-01
1.173993e-01
8.825662e-02
5.886753e-02
2.939664e-02
3.428397e-01
3.223724e-01
3.005550e-01
2.773596e-01
2.528868e-01
2.272720e-01
2.006553e-01
1.731883e-01
1.450316e-01
1.163582e-01
8.733739e-02
5.816061e-02
2.900500e-02
3.422828e-01
3.213147e-01
2.990739e-01
2.756026e-01
2.510228e-01
2.254130e-01
1.988265e-01
1.713912e-01
1.432830e-01
1.146797e-01
8.580198e-02
5.689725e-02
2.821127e-02
3.415080e-01
3.195402e-01
2.965840e-01
2.728045e-01
2.482649e-01
2.227592e-01
1.962124e-01
1.688137e-01
1.407407e-01
1.121623e-01
1.363316e-01
1.170675e-01
9.742604e-02
7.748308e-02
5.727460e-02
3.689126e-02
8.335035e-02
5.478152e-02
2.680351e-02
3.401148e-01
3.159652e-01
2.922728e-01
2.687224e-01
2.446950e-01
2.192779e-01
1.927124e-01
1.654009e-01
1.373631e-01
1.086218e-01
7.947091e-02
5.122221e-02
2.448297e-02
3.430170e-01
3.203609e-01
2.891137e-01
2.612528e-01
3.369040e-01
3.076137e-01
2.852950e-01
2.648003e-01
2.405805e-01
2.147821e-01
1.882448e-01
1.614010e-01
1.333535e-01
1.041422e-01
7.250668e-02
4.430143e-02
2.304883e-02
2.285445e-02
2.886857e-02
4.927451e-02
2.262839e-02
3.850057e-02
5.846567e-02
7.758697e-02
2.791690e-02
4.887475e-02
6.814741e-02
8.769228e-02
1.068046e-01
3.548803e-01
3.548803e-01
3.548803e-01
3.548803e-01
3.548803e-01
3.548803e-01
3.548803e-01
3.548803e-01
3.548803e-01
3.548803e-01
3.548803e-01
3.548803e-01
3.548803e-01
3.548803e-01
3.548803e-01
3.548803e-01
3.548803e-01
3.548803e-01
3.548803e-01
3.548803e-01
3.548803e-01
3.548803e-01
3.548803e-01
3.548803e-01
3.548803e-01
3.548803e-01
3.548803e-01
3.548803e-01
3.548803e-01
3.548803e-01
3.548803e-01
3.548803e-01
3.548803e-01
-6.938894e-18
-6.938894e-18
-6.938894e-18
-6.938894e-18
-6.938894e-18
-6.938894e-18
-6.938894e-18
-6.938894e-18
-6.938894e-18
-6.938894e-18
-6.938894e-18
-6.938894e-18
-6.938894e-18
-6.938894e-18
-6.938894e-18
-6.938894e-18
-6.938894e-18
-6.938894e-18
-6.938894e-18
-6.938894e-18
-6.938894e-18
-6.938894e-18
-6.938894e-18
-6.938894e-18
-6.938894e-18
-6.938894e-18
-6.938894e-18
-6.938894e-18
-6.938894e-18
-6.938894e-18
-6.938894e-18
-6.938894e-18
-6.938894e-18
2.124585e-01
1.744354e-01
2.248820e-01
2.267893e-01
2.265938e-01
1.993120e-01
2.284528e-01
2.039129e-01
5.179484e-02
7.014126e-02
8.043501e-02
9.899741e-02
1.106259e-01
1.264618e-01
1.341743e-01
1.419972e-01
1.470043e-01
1.628227e-01
1.649665e-01
1.748191e-01
1.822421e-01
1.892216e-01
3.738507e-02
2.351101e-02
1.913575e-01
1.975801e-01
2.026821e-01
2.097923e-01
2.066534e-01
2.467152e-01
2.304085e-01
2.482386e-01
2.628127e-01
2.564418e-01
2.673901e-01
2.807168e-01
2.859805e-01
3.062411e-01
1.940756e-01
2.167931e-01
2.420223e-01
1.331428e-01
1.644428e-01
1.933984e-01
2.177926e-01
1.968640e-01
2.221378e-01
2.506648e-01
1.231703e-01
6.686418e-02
5.040328e-02
2.976478e-02
2.632843e-01
1.252240e-01
2.691918e-01
1.276626e-01
2.682146e-01
1.316801e-01
1.626961e-01
1.919752e-01
2.181882e-01
1.978797e-01
2.228839e-01
2.506028e-01
1.320891e-01
2.674938e-01
6.929750e-02
9.845493e-02
1.000911e-01
1.358180e-01
1.338625e-01
1.197047e-01
1.794476e-01
1.634422e-01
1.513774e-01
1.404159e-01
2.160021e-01
1.971733e-01
1.822794e-01
1.684611e-01
1.673946e-01
3.153793e-01
3.145119e-01
2.934773e-01
2.921407e-01
2.945878e-01
9.786011e-02
8.115010e-02
6.220185e-02
4.199459e-02
2.495835e-02
2.458297e-01
2.642294e-01
2.698290e-01
2.750095e-01
2.294369e-01
2.422343e-01
2.500545e-01
2.549863e-01
1.813637e-01
2.334909e-01
2.114463e-01
1.917151e-01
2.260007e-02
2.728931e-02
4.933918e-02
3.202674e-02
5.718342e-02
7.962124e-02
1.425495e-01
2.284114e-02
4.020135e-02
6.407971e-02
8.874087e-02
1.148950e-01
1.408616e-02
2.571633e-02
4.678224e-02
6.965200e-02
9.512554e-02
1.200759e-01
1.498216e-01
1.649878e-01
3.355784e-01
3.149576e-01
3.337246e-01
1.332108e-01
1.141410e-01
9.468946e-02
7.426407e-02
5.292095e-02
2.843954e-02
2.764578e-01
2.944228e-01
3.124124e-01
3.292463e-01
3.410024e-01
2.298285e-01
2.526633e-01
2.723224e-01
2.910390e-01
3.085586e-01
3.241539e-01
3.388595e-01
2.961452e-02
5.787190e-02
8.771032e-02
1.178120e-01
1.471274e-01
1.734895e-01
1.995453e-01
2.299974e-01
2.560225e-01
2.815431e-01
3.064817e-01
3.299411e-01
2.073141e-01
2.280236e-01
2.492405e-01
2.688714e-01
2.873507e-01
3.054737e-01
3.217609e-01
3.347105e-01
2.677544e-01
2.929720e-01
3.194629e-01
3.146532e-02
6.304697e-02
9.422809e-02
1.238669e-01
1.513208e-01
1.769965e-01
2.022335e-01
2.270813e-01
2.521945e-01
2.773694e-01
3.027533e-01
3.289000e-01
3.741073e-02
5.955604e-02
9.739280e-02
3.443899e-02
6.985305e-02
1.028539e-01
1.288098e-01
1.568805e-01
1.842860e-01
2.102717e-01
2.353081e-01
2.602608e-01
2.852300e-01
3.093430e-01
3.327012e-01
2.564146e-02
4.870495e-02
7.642175e-02
1.086030e-01
1.412363e-01
1.751781e-01
2.077211e-01
2.385725e-01
2.684951e-01
2.919207e-01
3.114432e-01
3.347157e-01
2.826819e-01
3.078552e-01
3.277806e-01
2.698927e-02
5.594362e-02
8.620356e-02
1.168548e-01
1.470518e-01
1.759059e-01
2.040529e-01
2.315115e-01
2.586437e-01
2.846054e-01
3.084597e-01
3.314580e-01
1.571050e-01
1.871867e-01
2.071869e-01
1.579870e-01
2.349000e-01
2.856720e-02
5.442410e-02
8.812614e-02
2.956251e-02
6.273367e-02
9.536201e-02
1.218021e-01
1.516031e-01
1.813461e-01
2.123541e-01
2.401814e-01
2.624737e-01
2.866085e-01
3.101504e-01
3.328742e-01
2.881448e-01
3.115233e-01
3.337895e-01
2.986704e-02
6.143289e-02
9.406895e-02
1.247161e-01
1.505119e-01
1.826442e-01
2.138975e-01
2.408478e-01
2.660586e-01
2.898877e-01
3.126747e-01
3.344843e-01
1.501407e-01
1.791664e-01
2.177286e-01
2.484686e-01
3.064878e-02
5.827152e-02
9.258348e-02
2.147546e-01
2.395629e-01
2.606067e-01
2.802270e-01
2.986861e-01
3.163417e-01
3.323780e-01
3.188430e-02
6.715018e-02
1.010950e-01
1.267110e-01
1.587928e-01
1.956377e-01
2.225308e-01
2.450465e-01
2.685063e-01
2.911532e-01
3.133308e-01
3.346357e-01
2.916048e-01
3.136845e-01
3.348414e-01
1.542746e-01
1.801899e-01
2.138790e-01
2.459819e-01
3.232117e-02
6.153351e-02
9.469895e-02
3.191382e-02
6.758753e-02
1.012859e-01
1.272144e-01
1.589841e-01
1.925221e-01
2.168015e-01
2.420314e-01
2.682367e-01
2.916404e-01
3.141195e-01
3.353783e-01
2.920604e-01
3.148643e-01
3.358771e-01
2.920229e-02
5.597702e-02
3.366643e-01
9.772957e-02
3.645843e-02
7.526685e-02
1.043797e-01
1.281659e-01
1.516467e-01
1.797385e-01
2.081593e-01
2.381679e-01
2.674987e-01
2.935550e-01
3.167559e-01
3.370246e-01
2.414846e-02
4.826472e-02
7.601030e-02
1.085595e-01
1.411218e-01
1.753913e-01
2.078610e-01
2.401850e-01
2.713362e-01
2.978017e-01
3.213752e-01
3.400953e-01
2.779818e-01
3.044379e-01
3.326458e-01
2.810830e-02
5.751931e-02
8.724486e-02
1.831352e-01
1.659730e-01
1.482546e-01
1.284413e-01
1.072841e-01
8.587576e-02
6.126846e-02
3.281640e-02
1.993534e-02
1.178666e-01
1.491419e-01
1.788801e-01
2.063811e-01
2.326065e-01
2.582136e-01
2.839466e-01
3.092930e-01
3.333398e-01
1.620032e-01
1.909471e-01
2.161581e-01
2.417114e-01
2.755815e-02
6.382653e-02
2.475652e-01
2.672304e-01
2.861323e-01
3.040494e-01
3.204630e-01
3.367751e-01
1.005417e-01
3.517361e-02
6.783930e-02
9.493904e-02
1.254072e-01
1.564804e-01
1.897506e-01
2.168827e-01
2.389304e-01
2.635447e-01
2.884719e-01
3.125553e-01
3.348751e-01
2.924107e-01
3.152350e-01
3.355952e-01
4.559832e-02
7.889911e-02
1.066940e-01
3.698662e-02
7.742094e-02
1.107008e-01
1.362992e-01
1.668944e-01
1.944149e-01
2.176365e-01
2.441320e-01
2.725714e-01
2.981056e-01
3.163841e-01
3.359529e-01
3.369237e-01
3.222752e-01
3.333545e-01
3.160074e-01
2.995513e-01
3.392739e-01
2.750508e-01
2.926274e-01
3.101109e-01
3.267897e-01
0.000000e+00
0.000000e+00
0.000000e+00
0.000000e+00
0.000000e+00
0.000000e+00
0.000000e+00
0.000000e+00
0.000000e+00
0.000000e+00
0.000000e+00
0.000000e+00
0.000000e+00
0.000000e+00
0.000000e+00
0.000000e+00
0.000000e+00
0.000000e+00
0.000000e+00
0.000000e+00
0.000000e+00
0.000000e+00
0.000000e+00
0.000000e+00
0.000000e+00
0.000000e+00
0.000000e+00
0.000000e+00
0.000000e+00
0.000000e+00
0.000000e+00
1.000000e+00
1.000000e+00
1.000000e+00
1.000000e+00
1.000000e+00
1.000000e+00
1.000000e+00
1.000000e+00
1.000000e+00
1.000000e+00
1.000000e+00
1.000000e+00
1.000000e+00
1.000000e+00
1.000000e+00
1.000000e+00
1.000000e+00
1.000000e+00
1.000000e+00
1.000000e+00
1.000000e+00
1.000000e+00
1.000000e+00
1.000000e+00
1.000000e+00
1.000000e+00
1.000000e+00
1.000000e+00
1.000000e+00
1.000000e+00
9.721381e-01
9.437376e-01
9.144410e-01
8.833781e-01
8.542451e-01
8.257687e-01
7.946848e-01
7.610392e-01
7.273008e-01
6.953507e-01
6.660358e-01
6.370349e-01
6.073915e-01
5.773939e-01
5.471101e-01
5.166339e-01
4.859286e-01
4.549875e-01
4.237701e-01
3.924277e-01
3.623788e-01
3.341566e-01
3.057738e-01
2.767079e-01
2.474870e-01
2.180491e-01
1.884307e-01
1.615139e-01
1.333574e-01
1.017643e-01
6.943370e-02
3.995239e-02
1.580033e-02
1.925844e-02
5.807874e-02
8.681970e-02
1.184757e-01
1.502269e-01
1.787181e-01
2.086012e-01
2.375758e-01
2.807877e-01
3.053730e-01
3.294186e-01
3.588194e-01
3.930778e-01
4.315307e-01
4.644505e-01
4.878836e-01
5.152921e-01
5.428799e-01
5.674288e-01
5.982304e-01
6.359561e-01
6.664132e-01
6.944991e-01
7.329509e-01
7.659588e-01
7.892855e-01
8.137709e-01
8.425317e-01
8.713428e-01
8.966896e-01
9.245747e-01
9.592009e-01
9.833885e-01
9.028324e-01
8.754901e-01
8.941750e-01
8.515145e-01
2.155745e-01
1.591279e-01
1.271795e-01
1.119246e-01
8.843241e-02
8.259798e-02
9.543588e-01
9.302115e-01
9.295208e-01
9.343011e-01
1.679024e-02
8.496506e-01
8.202153e-01
8.346100e-01
8.164579e-01
8.124419e-01
8.355194e-01
8.060582e-01
8.589248e-01
8.303958e-01
8.012694e-01
8.824975e-01
8.546411e-01
2.080084e-02
3.882531e-02
8.262565e-01
7.972767e-01
9.059078e-01
8.788383e-01
8.512937e-01
8.229201e-01
7.932080e-01
9.150111e-01
8.870047e-01
8.566872e-01
8.185646e-01
7.863645e-01
8.813210e-01
8.603121e-01
8.277576e-01
7.922371e-01
1.875110e-01
1.629286e-01
1.829746e-01
1.454372e-01
2.084168e-01
1.751884e-01
1.510600e-01
1.234834e-01
1.853679e-01
2.254057e-02
4.356131e-02
6.379607e-02
8.628031e-02
1.476610e-01
1.273269e-01
1.023898e-01
2.082659e-01
1.903219e-01
1.683762e-01
1.974353e-01
1.460012e-01