VARIABLES = "X" "Y" "Z" "FREF"
ZONE T="instant 045"
STRANDID=0, SOLUTIONTIME=0
Nodes=3151, Elements=6298
ZONETYPE=FETriangle
DATAPACKING=BLOCK
VARLOCATION = ([1-3]=NODAL, [4]=CELLCENTERED)
5.000000e-01
1.557372e-01
1.718026e-01
1.873034e-01
2.024212e-01
2.200785e-01
2.394005e-01
2.602208e-01
2.825808e-01
3.060115e-01
3.296808e-01
3.523597e-01
3.739005e-01
3.945747e-01
4.135827e-01
4.301102e-01
4.438589e-01
4.542435e-01
4.636128e-01
4.731429e-01
4.813858e-01
4.879507e-01
4.928200e-01
4.963549e-01
4.986034e-01
4.997375e-01
1.420000e-01
1.420000e-01
1.420000e-01
1.420000e-01
1.420000e-01
1.420000e-01
1.420000e-01
1.420000e-01
1.420000e-01
1.420000e-01
1.420000e-01
1.420000e-01
2.913165e-01
2.897534e-01
2.860968e-01
2.803075e-01
2.734463e-01
2.681727e-01
2.614996e-01
2.527931e-01
2.443188e-01
2.360621e-01
2.273833e-01
2.172902e-01
2.090006e-01
2.007537e-01
1.930074e-01
1.836293e-01
1.743154e-01
1.673739e-01
1.592684e-01
1.507305e-01
2.920000e-01
4.810501e-01
4.578207e-01
4.376458e-01
4.174824e-01
3.943648e-01
3.717399e-01
3.524788e-01
3.348809e-01
3.180783e-01
3.040513e-01
3.359118e-01
1.761816e-01
1.666559e-01
3.491417e-01
3.273398e-01
1.814155e-01
1.905037e-01
1.735166e-01
1.929412e-01
1.573398e-01
1.934257e-01
1.810688e-01
1.973284e-01
2.092730e-01
4.827183e-01
2.225188e-01
2.400813e-01
2.156481e-01
2.278647e-01
2.818120e-01
2.938446e-01
3.309553e-01
3.105447e-01
3.125557e-01
3.427675e-01
3.577103e-01
3.345076e-01
4.747009e-01
4.623709e-01
3.479064e-01
3.693485e-01
3.618127e-01
3.834331e-01
3.790124e-01
3.913302e-01
3.027348e-01
3.278015e-01
3.143976e-01
2.964790e-01
1.765002e-01
1.627229e-01
1.552044e-01
1.564899e-01
1.559427e-01
1.701674e-01
1.853552e-01
1.562950e-01
1.705204e-01
1.858604e-01
2.024442e-01
1.498598e-01
1.594395e-01
1.719489e-01
1.867252e-01
4.787378e-01
2.026503e-01
2.205272e-01
2.203449e-01
2.396904e-01
2.220950e-01
2.385936e-01
2.595532e-01
1.563661e-01
1.712845e-01
1.870657e-01
2.039582e-01
2.024019e-01
1.991576e-01
2.080915e-01
2.164242e-01
2.360337e-01
2.525245e-01
2.640881e-01
2.801001e-01
1.543681e-01
1.686154e-01
1.847398e-01
2.031348e-01
2.194075e-01
2.348089e-01
2.537615e-01
2.379378e-01
2.508182e-01
2.556475e-01
2.705743e-01
2.867689e-01
3.065167e-01
2.161904e-01
2.291806e-01
2.431341e-01
2.717719e-01
4.719258e-01
4.590221e-01
4.488425e-01
4.369407e-01
2.896662e-01
3.083512e-01
3.293710e-01
2.245862e-01
2.574462e-01
2.737237e-01
2.920786e-01
3.094185e-01
3.289209e-01
3.506004e-01
2.377522e-01
2.523948e-01
2.687069e-01
2.769824e-01
2.948818e-01
3.157087e-01
4.646488e-01
4.497638e-01
4.367735e-01
4.247135e-01
4.113517e-01
3.282375e-01
3.479032e-01
3.703389e-01
2.924541e-01
3.139679e-01
3.414750e-01
3.647939e-01
3.886314e-01
2.444032e-01
2.584960e-01
2.745085e-01
2.928552e-01
3.360715e-01
3.589685e-01
3.821289e-01
4.058034e-01
3.129548e-01
3.336863e-01
3.546025e-01
3.766876e-01
3.987424e-01
4.215904e-01
4.052588e-01
4.211188e-01
2.624428e-01
2.772039e-01
2.942740e-01
3.133874e-01
3.339879e-01
3.541446e-01
3.717844e-01
3.947673e-01
4.142004e-01
4.365917e-01
3.597204e-01
3.687734e-01
4.563105e-01
4.407557e-01
4.269139e-01
4.140803e-01
4.018155e-01
3.898830e-01
3.770270e-01
3.795362e-01
3.916618e-01
4.043063e-01
4.164535e-01
4.309926e-01
4.469111e-01
1.420000e-01
4.996307e-01
4.976233e-01
4.941240e-01
4.891578e-01
4.812534e-01
4.719784e-01
4.602022e-01
4.457931e-01
4.275500e-01
4.083054e-01
3.906665e-01
3.714185e-01
3.505496e-01
3.288674e-01
3.103730e-01
2.946911e-01
2.789936e-01
2.616892e-01
2.435691e-01
2.259004e-01
2.090067e-01
1.930079e-01
1.782937e-01
1.648449e-01
1.527311e-01
5.000000e-01
3.041206e-01
3.188546e-01
3.358806e-01
3.555333e-01
3.752422e-01
3.948325e-01
4.157045e-01
4.390975e-01
4.629507e-01
4.838177e-01
2.920000e-01
1.503985e-01
1.587620e-01
1.689580e-01
1.805560e-01
1.908333e-01
2.008103e-01
2.109148e-01
2.209903e-01
2.299647e-01
2.367015e-01
2.455382e-01
2.536438e-01
2.601268e-01
2.654787e-01
2.703202e-01
2.769890e-01
2.820478e-01
2.848043e-01
2.873762e-01
2.897809e-01
2.914859e-01
1.420000e-01
1.420000e-01
1.420000e-01
1.420000e-01
1.420000e-01
1.420000e-01
1.420000e-01
1.420000e-01
1.420000e-01
1.420000e-01
1.420000e-01
3.348647e-01
3.689274e-01
1.736618e-01
2.016016e-01
1.940756e-01
2.996587e-01
3.063633e-01
3.207448e-01
3.193882e-01
3.430647e-01
3.425647e-01
3.517064e-01
3.319578e-01
4.001805e-01
1.538683e-01
3.817323e-01
3.583078e-01
3.871017e-01
3.416079e-01
3.750430e-01
3.597433e-01
3.949801e-01
3.795696e-01
1.579614e-01
2.009027e-01
1.767852e-01
1.669958e-01
1.565132e-01
1.956478e-01
2.213699e-01
1.882787e-01
2.217765e-01
2.083631e-01
2.332846e-01
2.195643e-01
2.444182e-01
2.583696e-01
1.631366e-01
3.048300e-01
1.569289e-01
1.660190e-01
1.809356e-01
2.950479e-01
3.090276e-01
3.225940e-01
4.768979e-01
4.531300e-01
4.659060e-01
4.743806e-01
4.202016e-01
4.309649e-01
4.411227e-01
4.513192e-01
1.806549e-01
1.691774e-01
1.552097e-01
4.646769e-01
4.170673e-01
4.269264e-01
4.374677e-01
4.570141e-01
4.039991e-01
4.081558e-01
4.357528e-01
4.462693e-01
2.922662e-01
3.007230e-01
3.107189e-01
3.847845e-01
4.021510e-01
4.269368e-01
3.639304e-01
3.859468e-01
3.932712e-01
4.031592e-01
4.112021e-01
4.162213e-01
4.214095e-01
2.795128e-01
3.224619e-01
3.401909e-01
3.647064e-01
3.780734e-01
3.957316e-01
4.130684e-01
2.824939e-01
2.896469e-01
2.989781e-01
3.531213e-01
3.692164e-01
1.958425e-01
1.840709e-01
3.837846e-01
3.972212e-01
2.643718e-01
3.111429e-01
3.244843e-01
3.464861e-01
3.574055e-01
3.692987e-01
3.803216e-01
2.680804e-01
2.747980e-01
2.834065e-01
3.315694e-01
3.434303e-01
3.532415e-01
3.626411e-01
2.931827e-01
2.113421e-01
1.972782e-01
1.826755e-01
1.689090e-01
1.560235e-01
3.017802e-01
3.208502e-01
3.277997e-01
3.359294e-01
3.439019e-01
2.450471e-01
2.496035e-01
2.567894e-01
2.654438e-01
3.031457e-01
3.103500e-01
3.181054e-01
3.246486e-01
2.722961e-01
2.778841e-01
2.851388e-01
2.937414e-01
3.008565e-01
3.052268e-01
1.576025e-01
1.734669e-01
1.932359e-01
2.105196e-01
2.279665e-01
2.457500e-01
2.639284e-01
2.227761e-01
2.262684e-01
2.421887e-01
2.458021e-01
2.510142e-01
2.594103e-01
2.692062e-01
2.803687e-01
2.820529e-01
2.845539e-01
2.279492e-01
2.128735e-01
1.985031e-01
1.851716e-01
1.718896e-01
1.571871e-01
2.322166e-01
2.468832e-01
2.635241e-01
2.035910e-01
2.155560e-01
2.296616e-01
2.454430e-01
5.000000e-01
5.000000e-01
5.000000e-01
5.000000e-01
5.000000e-01
5.000000e-01
5.000000e-01
5.000000e-01
5.000000e-01
5.000000e-01
5.000000e-01
5.000000e-01
5.000000e-01
5.000000e-01
5.000000e-01
5.000000e-01
5.000000e-01
5.000000e-01
5.000000e-01
5.000000e-01
5.000000e-01
5.000000e-01
5.000000e-01
5.000000e-01
5.000000e-01
5.000000e-01
5.000000e-01
5.000000e-01
5.000000e-01
5.000000e-01
5.000000e-01
5.000000e-01
5.000000e-01
1.420000e-01
1.420000e-01
1.420000e-01
1.420000e-01
1.420000e-01
1.420000e-01
1.420000e-01
1.420000e-01
1.420000e-01
1.420000e-01
1.420000e-01
1.420000e-01
1.420000e-01
1.420000e-01
1.420000e-01
1.420000e-01
1.420000e-01
1.420000e-01
1.420000e-01
1.420000e-01
1.420000e-01
1.420000e-01
1.420000e-01
1.420000e-01
1.420000e-01
1.420000e-01
1.420000e-01
1.420000e-01
1.420000e-01
1.420000e-01
1.420000e-01
1.420000e-01
1.420000e-01
3.381726e-01
3.510634e-01
3.459686e-01
3.583976e-01
3.714540e-01
3.959809e-01
3.731397e-01
3.828311e-01
2.954850e-01
3.064902e-01
3.162534e-01
3.170332e-01
3.264038e-01
3.337713e-01
3.398724e-01
3.690878e-01
3.485037e-01
3.375251e-01
3.574193e-01
3.773008e-01
3.277815e-01
3.276483e-01
1.601392e-01
1.526074e-01
3.449580e-01
3.648580e-01
3.848693e-01
3.644479e-01
3.772509e-01
3.903172e-01
3.828194e-01
3.946777e-01
3.998055e-01
4.226966e-01
3.799236e-01
3.945078e-01
3.726598e-01
4.018347e-01
3.829061e-01
3.633694e-01
4.083951e-01
3.900823e-01
3.732956e-01
3.560679e-01
4.063527e-01
4.202672e-01
4.166642e-01
4.024177e-01
3.909961e-01
1.759486e-01
1.657790e-01
1.549925e-01
3.490003e-01
3.615473e-01
3.722121e-01
3.395420e-01
3.515176e-01
3.299368e-01
1.527433e-01
1.608200e-01
1.631110e-01
1.722448e-01
1.752063e-01
1.827212e-01
1.855469e-01
1.888625e-01
1.894590e-01
1.961064e-01
2.002451e-01
2.040799e-01
2.051061e-01
2.113950e-01
2.161989e-01
2.205171e-01
2.150103e-01
2.219981e-01
2.280944e-01
2.332405e-01
2.379251e-01
2.264577e-01
2.331588e-01
2.398553e-01
2.458715e-01
2.511569e-01
2.560614e-01
2.376555e-01
1.920843e-01
1.809346e-01
1.699049e-01
1.593212e-01
1.534219e-01
2.448882e-01
2.518882e-01
2.584856e-01
2.644443e-01
2.696657e-01
2.746201e-01
2.561089e-01
2.640500e-01
2.711775e-01
2.776987e-01
2.836139e-01
2.884066e-01
2.932375e-01
2.668308e-01
2.757581e-01
2.839966e-01
2.908464e-01
2.972952e-01
3.034242e-01
3.067169e-01
3.115279e-01
2.773860e-01
2.867953e-01
2.961103e-01
3.048274e-01
3.102885e-01
3.171216e-01
3.251644e-01
3.227418e-01
3.300311e-01
3.479639e-01
3.964158e-01
3.225465e-01
3.402828e-01
3.603561e-01
2.092331e-01
1.975881e-01
1.861637e-01
1.754561e-01
1.668055e-01
1.579128e-01
3.807270e-01
3.101930e-01
3.293132e-01
3.499778e-01
3.709903e-01
3.891074e-01
4.053274e-01
3.485750e-01
3.603838e-01
3.669427e-01
3.743295e-01
3.806941e-01
3.885942e-01
3.968589e-01
4.053774e-01
4.064154e-01
4.106089e-01
4.152661e-01
4.175937e-01
4.210534e-01
4.251773e-01
3.884862e-01
3.986933e-01
4.071820e-01
4.156383e-01
4.239310e-01
4.303430e-01
4.345731e-01
4.039855e-01
4.084253e-01
4.159605e-01
4.252856e-01
4.329487e-01
4.385439e-01
4.432306e-01
4.200135e-01
4.348351e-01
4.327407e-01
4.440795e-01
4.470960e-01
4.513402e-01
4.555973e-01
4.590877e-01
4.334320e-01
4.499140e-01
4.598703e-01
4.659023e-01
4.462104e-01
4.604717e-01
4.668061e-01
4.719368e-01
4.679426e-01
4.781575e-01
2.277789e-01
2.156363e-01
2.036413e-01
1.923042e-01
1.820433e-01
1.720093e-01
1.608786e-01
1.542435e-01
4.749288e-01
4.839040e-01
4.776674e-01
4.849968e-01
4.927321e-01
4.978953e-01
4.952200e-01
4.917058e-01
4.912399e-01
4.874789e-01
4.857598e-01
4.865193e-01
4.789564e-01
4.798667e-01
4.810083e-01
4.823948e-01
4.709363e-01
4.717502e-01
4.730401e-01
4.746439e-01
4.764715e-01
4.620688e-01
4.635129e-01
4.653607e-01
4.674958e-01
4.698006e-01
4.597075e-01
4.625016e-01
4.505408e-01
4.523451e-01
4.544688e-01
4.569681e-01
4.375058e-01
4.395241e-01
4.418756e-01
4.447683e-01
4.480917e-01
4.514804e-01
4.546376e-01
4.235626e-01
4.252159e-01
4.275093e-01
4.306977e-01
4.347281e-01
4.391786e-01
4.429471e-01
4.459556e-01
3.932438e-01
3.943968e-01
4.096913e-01
4.114059e-01
4.144033e-01
4.193368e-01
4.248706e-01
4.313209e-01
4.325034e-01
4.366812e-01
3.923656e-01
4.068065e-01
3.818986e-01
1.835644e-01
2.071360e-01
1.933470e-01
2.120848e-01
2.047408e-01
2.313481e-01
2.255746e-01
2.175968e-01
2.570149e-01
2.471589e-01
2.476301e-01
2.348341e-01
2.222956e-01
2.103039e-01
1.989660e-01
1.880922e-01
1.773152e-01
1.681477e-01
1.587099e-01
2.388959e-01
2.306289e-01
2.806172e-01
2.705088e-01
2.610056e-01
2.521581e-01
2.436657e-01
2.941738e-01
2.838638e-01
2.743303e-01
2.653264e-01
2.566801e-01
3.177348e-01
3.068549e-01
2.968218e-01
2.874223e-01
2.784320e-01
2.696852e-01
3.403800e-01
3.294968e-01
3.191785e-01
3.095677e-01
3.004371e-01
2.915223e-01
2.826645e-01
3.611355e-01
3.515802e-01
3.409864e-01
3.313324e-01
3.222893e-01
3.135082e-01
3.045967e-01
2.955388e-01
3.781378e-01
3.745871e-01
3.617934e-01
3.523400e-01
3.434723e-01
3.352638e-01
3.267020e-01
3.174887e-01
3.081586e-01
4.288495e-01
4.163299e-01
4.007453e-01
3.830707e-01
3.631211e-01
3.418644e-01
3.203472e-01
4.121019e-01
3.953768e-01
3.761933e-01
3.532760e-01
3.318125e-01
1.541749e-01
1.519081e-01
1.544013e-01
1.671757e-01
1.620960e-01
1.699104e-01
1.815903e-01
1.531245e-01
1.635121e-01
1.744027e-01
1.848490e-01
1.970010e-01
1.538282e-01
1.650906e-01
1.766187e-01
1.883402e-01
2.004995e-01
2.134639e-01
2.686411e-01
2.550162e-01
2.418988e-01
2.293678e-01
2.173545e-01
2.057396e-01
1.944457e-01
1.838681e-01
1.733676e-01
1.620601e-01
1.544514e-01
1.508179e-01
1.565763e-01
1.669491e-01
1.787304e-01
1.909825e-01
2.038127e-01
2.171161e-01
2.308358e-01
1.499555e-01
1.527980e-01
1.619469e-01
1.703297e-01
1.812448e-01
1.935293e-01
2.066808e-01
2.203691e-01
2.345699e-01
2.491649e-01
1.556594e-01
1.648955e-01
1.746051e-01
1.845597e-01
1.963497e-01
2.094568e-01
2.233103e-01
2.376922e-01
2.526477e-01
2.686912e-01
2.857633e-01
1.512957e-01
1.597762e-01
1.683805e-01
1.783227e-01
1.885521e-01
1.994753e-01
2.122870e-01
2.261439e-01
2.405840e-01
2.554847e-01
2.707696e-01
2.865382e-01
3.008136e-01
1.518155e-01
1.616278e-01
1.707888e-01
1.818806e-01
1.929587e-01
2.037189e-01
2.148017e-01
2.289016e-01
2.433572e-01
2.582965e-01
2.735604e-01
2.889052e-01
3.048992e-01
3.177398e-01
1.470841e-01
1.530099e-01
1.624355e-01
1.738243e-01
1.825697e-01
1.972375e-01
2.089777e-01
2.198897e-01
2.296680e-01
2.466966e-01
2.607689e-01
2.763776e-01
2.918319e-01
3.067218e-01
3.254112e-01
3.348563e-01
2.905447e-01
2.759126e-01
2.622033e-01
2.492709e-01
2.368105e-01
2.246738e-01
2.128046e-01
2.012643e-01
1.899572e-01
1.786964e-01
1.683872e-01
1.565001e-01
4.990272e-01
4.996607e-01
4.967189e-01
4.984359e-01
4.995709e-01
4.930943e-01
4.959699e-01
4.980945e-01
4.994890e-01
4.837346e-01
4.883661e-01
4.922358e-01
4.953920e-01
4.978189e-01
4.994158e-01
4.656095e-01
4.759887e-01
4.822455e-01
4.872041e-01
4.913771e-01
4.948413e-01
4.975401e-01
4.993352e-01
4.691226e-01
4.752005e-01
4.808927e-01
4.860032e-01
4.904627e-01
4.942238e-01
4.971961e-01
4.992213e-01
4.540123e-01
4.604435e-01
4.668391e-01
4.732748e-01
4.792434e-01
4.846348e-01
4.893862e-01
4.934305e-01
4.966741e-01
4.989906e-01
4.995762e-01
4.405711e-01
4.493611e-01
4.570219e-01
4.642598e-01
4.710745e-01
4.773470e-01
4.830198e-01
4.880346e-01
4.923052e-01
4.956843e-01
4.979440e-01
4.994268e-01
4.152139e-01
4.266834e-01
4.368141e-01
4.457014e-01
4.538698e-01
4.615129e-01
4.686219e-01
4.751564e-01
4.810745e-01
4.863234e-01
4.908297e-01
4.945020e-01
4.973508e-01
4.992783e-01
3.831091e-01
3.994442e-01
4.123076e-01
4.233966e-01
4.331615e-01
4.421789e-01
3.129819e-01
2.971431e-01
2.827932e-01
2.697224e-01
2.570672e-01
2.446047e-01
2.322978e-01
2.201600e-01
2.081595e-01
1.962721e-01
1.847817e-01
1.729395e-01
1.614595e-01
4.506238e-01
4.585167e-01
4.658475e-01
4.725934e-01
4.787169e-01
4.842063e-01
4.890621e-01
4.932584e-01
4.967737e-01
4.991013e-01
1.527112e-01
1.642826e-01
1.773766e-01
1.917904e-01
2.076492e-01
2.246240e-01
2.424737e-01
2.609633e-01
2.798254e-01
2.988305e-01
3.179122e-01
3.370044e-01
3.559216e-01
3.748232e-01
3.928846e-01
4.096960e-01
4.250861e-01
4.398078e-01
4.546953e-01
4.647010e-01
4.739656e-01
4.840182e-01
4.910353e-01
4.963068e-01
3.679910e-01
3.857495e-01
3.978401e-01
4.096055e-01
4.196725e-01
4.293044e-01
4.384914e-01
4.471221e-01
4.551668e-01
4.626684e-01
4.695678e-01
4.758091e-01
4.815500e-01
4.868500e-01
4.914791e-01
4.963814e-01
4.985933e-01
1.534948e-01
1.657871e-01
1.795934e-01
1.946937e-01
2.111886e-01
2.287410e-01
2.471101e-01
2.660690e-01
2.853851e-01
3.048748e-01
3.243830e-01
3.437335e-01
3.627556e-01
3.812064e-01
3.987555e-01
4.152312e-01
4.305810e-01
4.448471e-01
4.574557e-01
4.684054e-01
4.781007e-01
4.865339e-01
4.931520e-01
4.978951e-01
1.542700e-01
1.673204e-01
1.818427e-01
1.976510e-01
2.148230e-01
2.330049e-01
2.519476e-01
2.714200e-01
2.911911e-01
3.110549e-01
3.308107e-01
3.502527e-01
3.691666e-01
3.873270e-01
4.045374e-01
4.206592e-01
4.355797e-01
4.491492e-01
4.612357e-01
4.718837e-01
4.810821e-01
4.887338e-01
4.946386e-01
4.985501e-01
1.550799e-01
1.688817e-01
1.841697e-01
2.007509e-01
2.186616e-01
2.375152e-01
2.570471e-01
2.770152e-01
2.971789e-01
3.356050e-01
3.183947e-01
3.029293e-01
2.903463e-01
2.778561e-01
2.653021e-01
2.527296e-01
2.401922e-01
2.277168e-01
2.153014e-01
2.029870e-01
1.907499e-01
1.784998e-01
1.657228e-01
1.574149e-01
3.173159e-01
3.372104e-01
3.566467e-01
3.754106e-01
3.933033e-01
4.101604e-01
4.258476e-01
4.402443e-01
4.532517e-01
4.648194e-01
4.749189e-01
4.834870e-01
4.904331e-01
4.956225e-01
4.988789e-01
1.558246e-01
1.704895e-01
1.866770e-01
2.041330e-01
2.228360e-01
2.423711e-01
2.624656e-01
2.828726e-01
3.033503e-01
3.236765e-01
3.436380e-01
3.630169e-01
3.815961e-01
3.991832e-01
4.156326e-01
4.308285e-01
4.446753e-01
4.571076e-01
4.680845e-01
4.775570e-01
4.854644e-01
4.917410e-01
4.963064e-01
4.990770e-01
1.567025e-01
1.724064e-01
1.896014e-01
2.080021e-01
2.275028e-01
2.476795e-01
2.682636e-01
2.890195e-01
3.097198e-01
3.301693e-01
3.501608e-01
3.694494e-01
3.878001e-01
4.050161e-01
4.209889e-01
4.356345e-01
4.488908e-01
4.607088e-01
4.710523e-01
4.798663e-01
4.871189e-01
4.927849e-01
4.968242e-01
4.992190e-01
1.579909e-01
1.749023e-01
1.932070e-01
2.125724e-01
2.328152e-01
2.535528e-01
2.744859e-01
2.954424e-01
3.162579e-01
3.368373e-01
3.568706e-01
3.760317e-01
3.941096e-01
4.108566e-01
4.262545e-01
4.402591e-01
4.529105e-01
4.641022e-01
4.737810e-01
4.819011e-01
4.885289e-01
4.936682e-01
4.972644e-01
4.993416e-01
1.596877e-01
1.782298e-01
1.978322e-01
2.179624e-01
2.389489e-01
2.601917e-01
2.811016e-01
3.019151e-01
3.228359e-01
3.438827e-01
3.638874e-01
3.828128e-01
4.006872e-01
4.167938e-01
4.313793e-01
4.445642e-01
4.568559e-01
4.674233e-01
4.763075e-01
4.836286e-01
4.897387e-01
4.944939e-01
3.579155e-01
3.405295e-01
3.209936e-01
3.108019e-01
2.989572e-01
2.865449e-01
2.738835e-01
2.611127e-01
2.483159e-01
2.355346e-01
2.227751e-01
2.100288e-01
1.973899e-01
1.850973e-01
1.744476e-01
1.629228e-01
4.977122e-01
4.994717e-01
1.634299e-01
1.843394e-01
2.029421e-01
2.240977e-01
2.464344e-01
2.682826e-01
2.877783e-01
3.057466e-01
3.303383e-01
3.518118e-01
3.711700e-01
3.895326e-01
4.083728e-01
4.232696e-01
4.353632e-01
4.482912e-01
4.614484e-01
4.711015e-01
4.781328e-01
4.849270e-01
4.907553e-01
4.954652e-01
4.983236e-01
4.995710e-01
4.995374e-01
4.993019e-01
4.979644e-01
4.995645e-01
4.987789e-01
4.971813e-01
4.951241e-01
4.992999e-01
4.979424e-01
4.961230e-01
4.937154e-01
4.909301e-01
4.987423e-01
4.970819e-01
4.948428e-01
4.920863e-01
4.888584e-01
4.852854e-01
4.993576e-01
4.975208e-01
4.959164e-01
4.934163e-01
4.902781e-01
4.866243e-01
4.825505e-01
4.781126e-01
4.695081e-01
4.991205e-01
4.972366e-01
4.946912e-01
4.918488e-01
4.883448e-01
4.842606e-01
4.797036e-01
4.747765e-01
4.597609e-01
4.995454e-01
4.986416e-01
4.966042e-01
4.937402e-01
4.902957e-01
4.863498e-01
4.818205e-01
4.767671e-01
4.713064e-01
4.655898e-01
4.489120e-01
4.992961e-01
4.978494e-01
4.957091e-01
4.926343e-01
4.888054e-01
4.843688e-01
4.793657e-01
4.738062e-01
4.677629e-01
4.614117e-01
4.550289e-01
4.988231e-01
4.971195e-01
4.946496e-01
4.913642e-01
4.872441e-01
4.824065e-01
4.769411e-01
4.708865e-01
4.642778e-01
4.571769e-01
4.499374e-01
4.430137e-01
4.362915e-01
4.212346e-01
4.994678e-01
4.978504e-01
4.962206e-01
4.935645e-01
4.900105e-01
4.856082e-01
4.804233e-01
4.745489e-01
4.680399e-01
4.609245e-01
4.532352e-01
4.447706e-01
4.367324e-01
4.296434e-01
3.641842e-01
3.790721e-01
4.992892e-01
4.978264e-01
4.954518e-01
4.925131e-01
4.886784e-01
4.839607e-01
4.784269e-01
4.721691e-01
4.652640e-01
4.577041e-01
4.495225e-01
4.408919e-01
4.292035e-01
4.221161e-01
4.160765e-01
4.004991e-01
1.420000e-01
1.420000e-01
1.420000e-01
1.420000e-01
1.420000e-01
1.420000e-01
1.420000e-01
1.420000e-01
1.420000e-01
1.420000e-01
1.420000e-01
1.420000e-01
1.420000e-01
1.420000e-01
1.420000e-01
1.420000e-01
1.420000e-01
1.420000e-01
1.420000e-01
1.420000e-01
1.420000e-01
1.420000e-01
1.420000e-01
1.420000e-01
1.420000e-01
1.420000e-01
1.420000e-01
1.420000e-01
1.420000e-01
1.420000e-01
1.420000e-01
1.420000e-01
1.420000e-01
1.420000e-01
1.420000e-01
1.420000e-01
1.420000e-01
1.420000e-01
1.420000e-01
1.420000e-01
1.420000e-01
1.420000e-01
1.420000e-01
1.420000e-01
1.420000e-01
1.420000e-01
1.420000e-01
1.420000e-01
1.420000e-01
1.420000e-01
1.420000e-01
1.420000e-01
1.420000e-01
1.420000e-01
1.420000e-01
1.420000e-01
1.420000e-01
1.420000e-01
1.420000e-01
1.420000e-01
1.420000e-01
1.420000e-01
1.420000e-01
1.420000e-01
1.420000e-01
1.420000e-01
1.420000e-01
1.420000e-01
1.420000e-01
1.420000e-01
1.420000e-01
1.420000e-01
1.420000e-01
1.420000e-01
1.420000e-01
1.420000e-01
1.420000e-01
1.420000e-01
1.420000e-01
1.420000e-01
1.420000e-01
1.420000e-01
1.420000e-01
1.420000e-01
1.420000e-01
1.420000e-01
1.420000e-01
1.420000e-01
1.420000e-01
1.420000e-01
1.420000e-01
1.420000e-01
1.420000e-01
1.420000e-01
1.420000e-01
1.420000e-01
1.420000e-01
1.420000e-01
1.420000e-01
1.420000e-01
1.420000e-01
1.420000e-01
1.420000e-01
1.420000e-01
1.420000e-01
1.420000e-01
1.420000e-01
1.420000e-01
1.420000e-01
1.420000e-01
1.420000e-01
1.420000e-01
1.420000e-01
1.420000e-01
1.420000e-01
1.420000e-01
1.420000e-01
1.420000e-01
1.420000e-01
1.420000e-01
1.420000e-01
1.420000e-01
1.420000e-01
1.420000e-01
1.420000e-01
1.420000e-01
1.420000e-01
1.420000e-01
1.420000e-01
1.420000e-01
1.420000e-01
1.420000e-01
1.420000e-01
1.420000e-01
1.420000e-01
1.420000e-01
1.420000e-01
1.420000e-01
1.420000e-01
1.420000e-01
1.420000e-01
1.420000e-01
1.420000e-01
1.420000e-01
1.420000e-01
1.420000e-01
1.420000e-01
1.420000e-01
1.420000e-01
1.420000e-01
1.420000e-01
1.420000e-01
1.420000e-01
1.420000e-01
1.420000e-01
1.420000e-01
1.420000e-01
1.420000e-01
1.420000e-01
1.420000e-01
1.420000e-01
1.420000e-01
1.420000e-01
1.420000e-01
1.420000e-01
1.420000e-01
1.420000e-01
1.420000e-01
1.420000e-01
1.420000e-01
1.420000e-01
1.420000e-01
1.420000e-01
1.420000e-01
1.420000e-01
1.420000e-01
1.420000e-01
1.420000e-01
1.420000e-01
1.420000e-01
1.420000e-01
1.420000e-01
1.420000e-01
1.420000e-01
1.420000e-01
1.420000e-01
1.420000e-01
1.420000e-01
1.420000e-01
1.420000e-01
1.420000e-01
1.420000e-01
1.420000e-01
1.420000e-01
1.420000e-01
1.420000e-01
1.420000e-01
1.420000e-01
1.420000e-01
1.420000e-01
1.420000e-01
1.420000e-01
1.420000e-01
1.420000e-01
1.420000e-01
1.420000e-01
1.420000e-01
1.420000e-01
1.420000e-01
1.420000e-01
1.420000e-01
1.420000e-01
1.420000e-01
1.420000e-01
1.420000e-01
1.420000e-01
1.420000e-01
1.420000e-01
1.420000e-01
1.420000e-01
1.420000e-01
1.420000e-01
1.420000e-01
1.420000e-01
1.420000e-01
1.420000e-01
1.420000e-01
1.420000e-01
1.420000e-01
1.420000e-01
1.420000e-01
1.420000e-01
1.420000e-01
1.420000e-01
1.420000e-01
1.420000e-01
1.420000e-01
1.420000e-01
1.420000e-01
1.420000e-01
1.420000e-01
1.420000e-01
1.420000e-01
1.420000e-01
1.420000e-01
1.420000e-01
1.420000e-01
1.420000e-01
1.420000e-01
1.420000e-01
1.420000e-01
1.420000e-01
1.420000e-01
1.420000e-01
1.420000e-01
1.420000e-01
1.420000e-01
1.420000e-01
1.420000e-01
1.420000e-01
1.420000e-01
1.420000e-01
1.420000e-01
1.420000e-01
1.420000e-01
1.420000e-01
1.420000e-01
1.420000e-01
1.420000e-01
1.420000e-01
1.420000e-01
1.420000e-01
1.420000e-01
1.420000e-01
1.420000e-01
1.420000e-01
1.420000e-01
1.420000e-01
1.420000e-01
1.420000e-01
1.420000e-01
1.420000e-01
1.420000e-01
1.420000e-01
1.420000e-01
1.420000e-01
1.420000e-01
1.420000e-01
1.420000e-01
1.420000e-01
1.420000e-01
1.420000e-01
1.420000e-01
1.420000e-01
1.420000e-01
1.420000e-01
1.420000e-01
1.420000e-01
1.420000e-01
1.420000e-01
1.420000e-01
1.420000e-01
1.420000e-01
1.420000e-01
1.420000e-01
1.420000e-01
1.420000e-01
1.420000e-01
1.420000e-01
1.420000e-01
1.420000e-01
1.420000e-01
1.420000e-01
1.420000e-01
1.420000e-01
1.420000e-01
1.420000e-01
1.420000e-01
1.420000e-01
1.420000e-01
1.420000e-01
1.420000e-01
1.420000e-01
1.420000e-01
1.420000e-01
1.420000e-01
1.420000e-01
1.420000e-01
1.420000e-01
1.420000e-01
1.420000e-01
1.420000e-01
1.420000e-01
1.420000e-01
1.420000e-01
1.420000e-01
1.420000e-01
1.420000e-01
1.420000e-01
1.420000e-01
1.420000e-01
1.420000e-01
1.420000e-01
1.420000e-01
1.420000e-01
1.420000e-01
1.420000e-01
1.420000e-01
1.420000e-01
1.420000e-01
1.420000e-01
1.420000e-01
1.420000e-01
1.420000e-01
1.420000e-01
1.420000e-01
1.420000e-01
1.420000e-01
1.420000e-01
1.420000e-01
1.420000e-01
1.420000e-01
1.420000e-01
1.420000e-01
1.420000e-01
1.420000e-01
1.420000e-01
1.420000e-01
1.420000e-01
1.420000e-01
2.920000e-01
2.920000e-01
2.920000e-01
2.920000e-01
2.920000e-01
2.920000e-01
2.920000e-01
2.920000e-01
2.920000e-01
2.920000e-01
2.920000e-01
2.920000e-01
2.920000e-01
2.920000e-01
2.920000e-01
2.920000e-01
2.920000e-01
2.920000e-01
2.920000e-01
2.920000e-01
2.920000e-01
2.920000e-01
2.920000e-01
2.920000e-01
2.920000e-01
2.920000e-01
2.920000e-01
2.920000e-01
2.920000e-01
2.920000e-01
2.920000e-01
2.920000e-01
2.920000e-01
2.429078e-01
2.356833e-01
2.542028e-01
2.401824e-01
2.458416e-01
2.318397e-01
2.312520e-01
2.253086e-01
2.209468e-01
2.426353e-01
2.357984e-01
2.297631e-01
2.408277e-01
2.283493e-01
2.377819e-01
1.591019e-01
2.901185e-01
2.871179e-01
2.803424e-01
2.834621e-01
2.812108e-01
2.752294e-01
2.815921e-01
2.777112e-01
2.736956e-01
2.743783e-01
2.695647e-01
2.645486e-01
2.699750e-01
2.649006e-01
2.598804e-01
2.541700e-01
2.880040e-01
2.649612e-01
2.594533e-01
2.538201e-01
2.503309e-01
2.428709e-01
2.402376e-01
2.451325e-01
2.328655e-01
2.603833e-01
2.499923e-01
2.908444e-01
2.379605e-01
2.236255e-01
2.303274e-01
2.243787e-01
2.182602e-01
2.134162e-01
2.110643e-01
2.155336e-01
2.095731e-01
2.048420e-01
2.012702e-01
2.062584e-01
1.990387e-01
1.954083e-01
1.916712e-01
1.881759e-01
1.853734e-01
1.821307e-01
1.751492e-01
1.726521e-01
1.623753e-01
1.989860e-01
1.837654e-01
1.717915e-01
1.622386e-01
1.519521e-01
2.801628e-01
2.750705e-01
2.912268e-01
2.885071e-01
2.900426e-01
2.842391e-01
2.863352e-01
2.813969e-01
2.756693e-01
2.839306e-01
2.874306e-01
2.904457e-01
1.771628e-01
1.657747e-01
1.530065e-01
1.765905e-01
1.628189e-01
1.500058e-01
2.798070e-01
2.747127e-01
2.911043e-01
2.882554e-01
2.898549e-01
2.839491e-01
2.860444e-01
2.810112e-01
2.752115e-01
1.765512e-01
1.654460e-01
1.529984e-01
1.772077e-01
1.632295e-01
1.501383e-01
2.910212e-01
2.880312e-01
2.895904e-01
2.836215e-01
2.856091e-01
2.806237e-01
2.751578e-01
1.777524e-01
1.661272e-01
1.530310e-01
2.907856e-01
2.869552e-01
2.831343e-01
2.802665e-01
2.768026e-01
2.752974e-01
2.666021e-01
1.770564e-01
1.640442e-01
1.508885e-01
2.021246e-01
1.888266e-01
1.753279e-01
1.606636e-01
1.499465e-01
2.807086e-01
2.758246e-01
2.911539e-01
2.883817e-01
2.899268e-01
2.840598e-01
2.862122e-01
2.810922e-01
2.753617e-01
1.794721e-01
1.676166e-01
1.542049e-01
1.772043e-01
1.637264e-01
2.699300e-01
2.770520e-01
2.820245e-01
2.860164e-01
1.504958e-01
2.910819e-01
2.883874e-01
2.845140e-01
1.792163e-01
1.675310e-01
1.533627e-01
2.781197e-01
2.726139e-01
2.907919e-01
2.875836e-01
2.893958e-01
2.829767e-01
2.849564e-01
2.768736e-01
2.789888e-01
2.692556e-01
2.724664e-01
1.977440e-01
1.853211e-01
1.730704e-01
1.620852e-01
1.512017e-01
1.737113e-01
1.608895e-01
1.493344e-01
2.907682e-01
2.873081e-01
2.888989e-01
2.823761e-01
2.846139e-01
2.794822e-01
2.737393e-01
2.583023e-01
1.750610e-01
1.647781e-01
1.522110e-01
2.913378e-01
2.878515e-01
2.830482e-01
2.795969e-01
2.760264e-01
2.743622e-01
2.651395e-01
1.763858e-01
1.629687e-01
1.503919e-01
2.004670e-01
1.875016e-01
1.744125e-01
1.601107e-01
1.496656e-01
2.792774e-01
2.740455e-01
2.909396e-01
2.879126e-01
2.896570e-01
2.834608e-01
2.855688e-01
2.800325e-01
2.739610e-01
1.781598e-01
1.666265e-01
1.536732e-01
1.752964e-01
1.625207e-01
1.499669e-01
2.796982e-01
2.745883e-01
2.909598e-01
2.490479e-01
2.878752e-01
2.896694e-01
2.833194e-01
2.857140e-01
2.805745e-01
2.746707e-01
1.765163e-01
1.651003e-01
1.524843e-01
1.743384e-01
1.618521e-01
1.496852e-01
2.909247e-01
2.877615e-01
2.893201e-01
2.832697e-01
2.848834e-01
2.789704e-01
2.729382e-01
1.751994e-01
1.646992e-01
1.521372e-01
2.907613e-01
2.883443e-01
2.850763e-01
2.782739e-01
2.789707e-01
2.728849e-01
2.684957e-01
1.752429e-01
1.621303e-01
1.498962e-01
2.043589e-01
1.913322e-01
1.749010e-01
1.625325e-01
1.517650e-01
2.908645e-01
2.873781e-01
2.884345e-01
2.673002e-01
2.744376e-01
2.799449e-01
2.841503e-01
2.868469e-01
2.900525e-01
2.823350e-01
2.839306e-01
2.782429e-01
2.722434e-01
1.750498e-01
1.642692e-01
1.524858e-01
2.909636e-01
2.865020e-01
2.791032e-01
2.736359e-01
2.665850e-01
1.757644e-01
1.626831e-01
1.499935e-01
1.526184e-01
2.843841e-01
2.817426e-01
2.770191e-01
2.766430e-01
2.688074e-01
2.672926e-01
2.698128e-01
2.608325e-01
2.511279e-01
2.550870e-01
2.596408e-01
2.623090e-01
2.421109e-01
2.477955e-01
2.527461e-01
2.517730e-01
2.235941e-01
2.129311e-01
2.046850e-01
1.964603e-01
1.874972e-01
1.773421e-01
1.675143e-01
1.610727e-01
1.526977e-01
1.665992e-01
1.714902e-01
1.803922e-01
1.812071e-01
1.959970e-01
1.926416e-01
1.899210e-01
2.063969e-01
2.024776e-01
1.992950e-01
2.079951e-01
2.201354e-01
2.153505e-01
2.113114e-01
2.328380e-01
2.283500e-01
2.232882e-01
2.194567e-01
2.165727e-01
2.450328e-01
2.255564e-01
2.344408e-01
2.388569e-01
2.888826e-01
1.518357e-01
2.905541e-01
2.902526e-01
2.886678e-01
2.861814e-01
2.913095e-01
2.804763e-01
2.776743e-01
2.743207e-01
2.499201e-01
2.565574e-01
2.647546e-01
2.720522e-01
2.780317e-01
2.826996e-01
2.863396e-01
2.895292e-01
2.913246e-01
2.897642e-01
2.870842e-01
2.831772e-01
2.614730e-01
2.910192e-01
2.889238e-01
2.859600e-01
2.816793e-01
2.767480e-01
2.720733e-01
2.673943e-01
2.915453e-01
2.904049e-01
2.873907e-01
2.851888e-01
2.796627e-01
2.742572e-01
2.693903e-01
2.654855e-01
2.575604e-01
2.507777e-01
1.573545e-01
1.499521e-01
1.788657e-01
1.708763e-01
1.607013e-01
1.527447e-01
1.819533e-01
1.689840e-01
2.152986e-01
2.086967e-01
1.987367e-01
1.856774e-01
1.749127e-01
1.655627e-01
1.569121e-01
1.504624e-01
1.997349e-01
1.892174e-01
2.779014e-01
2.702180e-01
2.618912e-01
2.515633e-01
2.397045e-01
2.265246e-01
2.128102e-01
2.911575e-01
2.891494e-01
2.846144e-01
2.777756e-01
2.692139e-01
2.583575e-01
2.471383e-01
2.350259e-01
2.226542e-01
2.121175e-01
2.001703e-01
1.899245e-01
1.785776e-01
1.653086e-01
1.543983e-01
2.286517e-01
2.202209e-01
2.103132e-01
1.990370e-01
1.883759e-01
1.786287e-01
1.695709e-01
1.614102e-01
1.532072e-01
1.501140e-01
2.644024e-01
2.559540e-01
2.448835e-01
2.319566e-01
1.688222e-01
1.634049e-01
1.535501e-01
2.158049e-01
2.020735e-01
1.884698e-01
1.746282e-01
1.619792e-01
1.520183e-01
2.775323e-01
2.697595e-01
2.610653e-01
2.501168e-01
2.381462e-01
2.254514e-01
2.123183e-01
1.987180e-01
1.865452e-01
1.737551e-01
2.909280e-01
2.888632e-01
2.843454e-01
2.782003e-01
2.692806e-01
2.562707e-01
2.444008e-01
2.318530e-01
2.190971e-01
2.073759e-01
2.909308e-01
2.876618e-01
2.831024e-01