 VARIABLES = "X" "Y" "Z" "CURVATURE RADIUS"
 ZONE T="pass_33"
N=33151 E=66298
 ZONETYPE=FETriangle
 DATAPACKING=BLOCK
 VARLOCATION = ([1-4]=NODAL)
 
 -7.8945382E-02
 -7.8476726E-02
 -7.8802351E-02
 -7.8855260E-02
 -7.8790518E-02
 -7.8639816E-02
 -7.8392530E-02
 -7.8108566E-02
 -7.8001753E-02
 -7.8035034E-02
 -7.8240557E-02
 -7.8551035E-02
 -7.8861279E-02
 -7.8863521E-02
 -7.9293496E-02
 -7.9091988E-02
 -7.8732099E-02
 -7.8233574E-02
 -7.7586366E-02
 -7.6759683E-02
 -7.7140121E-02
 -7.8284183E-02
 -7.8285721E-02
 -7.8558686E-02
 -7.8800854E-02
 -7.8911709E-02
 -7.9464977E-02
 -7.8832636E-02
 -7.8784457E-02
 -7.8704371E-02
 -7.8676832E-02
 -7.8591256E-02
 -7.8367973E-02
 -7.8000942E-02
 -7.7948464E-02
 -7.8267867E-02
 -7.8470556E-02
 -7.8539908E-02
 -7.8510991E-02
 -7.8765261E-02
 -7.9038673E-02
 -7.9235852E-02
 -7.8410710E-02
 -7.8753964E-02
 -7.7860121E-02
 -7.8084225E-02
 -7.6821910E-02
 -7.7285636E-02
 -7.8077290E-02
 -7.7360378E-02
 -7.8019966E-02
 -7.8540136E-02
 -7.9074918E-02
 -7.8781789E-02
 -7.8267742E-02
 -7.8527988E-02
 -7.8524886E-02
 -7.8396946E-02
 -7.8048880E-02
 -7.7703975E-02
 -7.7547076E-02
 -7.7250287E-02
 -7.8402005E-02
 -7.8182861E-02
 -7.8031699E-02
 -8.0000000E-02
 -8.0000000E-02
 -7.9862911E-02
 -8.0000000E-02
 -7.9822828E-02
 -7.9988981E-02
 -7.9962005E-02
 -7.9980764E-02
 -7.9979450E-02
 -8.0000000E-02
 -7.9868640E-02
 -7.9748479E-02
 -7.9611269E-02
 -7.9915703E-02
 -7.9686218E-02
 -7.9303497E-02
 -8.0000000E-02
 -7.9962420E-02
 -8.0000000E-02
 -7.9943263E-02
 -7.9999971E-02
 -8.0000000E-02
 -7.9998970E-02
 -7.9823067E-02
 -8.0000000E-02
 -8.0000000E-02
 -8.0000000E-02
 -8.0000000E-02
 -8.0000000E-02
 -8.0000000E-02
 -8.0000000E-02
 -7.9989422E-02
 -8.0000000E-02
 -8.0000000E-02
 -8.0000000E-02
 -8.0000000E-02
 -7.9850272E-02
 -8.0000000E-02
 -8.0000000E-02
 -8.0000000E-02
 -8.0000000E-02
 -7.9827585E-02
 -7.9904067E-02
 -7.9999955E-02
 -8.0000000E-02
 -8.0000000E-02
 -8.0000000E-02
 -7.9901139E-02
 -8.0000000E-02
 -8.0000000E-02
 -8.0000000E-02
 -8.0000000E-02
 -8.0000000E-02
 -8.0000000E-02
 -8.0000000E-02
 -8.0000000E-02
 -8.0000000E-02
 -7.9927826E-02
 -8.0000000E-02
 -8.0000000E-02
 -8.0000000E-02
 -8.0000000E-02
 -8.0000000E-02
 -7.9934129E-02
 -8.0000000E-02
 -8.0000000E-02
 -8.0000000E-02
 -8.0000000E-02
 -8.0000000E-02
 -8.0000000E-02
 -8.0000000E-02
 -8.0000000E-02
 -8.0000000E-02
 -7.9925830E-02
 -8.0000000E-02
 -8.0000000E-02
 -8.0000000E-02
 -8.0000000E-02
 -8.0000000E-02
 -8.0000000E-02
 -8.0000000E-02
 -8.0000000E-02
 -7.9923094E-02
 -8.0000000E-02
 -8.0000000E-02
 -8.0000000E-02
 -8.0000000E-02
 -8.0000000E-02
 -8.0000000E-02
 -8.0000000E-02
 -8.0000000E-02
 -8.0000000E-02
 -8.0000000E-02
 -7.9945747E-02
 -8.0000000E-02
 -8.0000000E-02
 -8.0000000E-02
 -8.0000000E-02
 -8.0000000E-02
 -8.0000000E-02
 -8.0000000E-02
 -7.9971187E-02
 -8.0000000E-02
 -8.0000000E-02
 -8.0000000E-02
 -8.0000000E-02
 -8.0000000E-02
 -8.0000000E-02
 -8.0000000E-02
 -8.0000000E-02
 -8.0000000E-02
 -8.0000000E-02
 -8.0000000E-02
 -8.0000000E-02
 -8.0000000E-02
 -7.9982561E-02
 -8.0000000E-02
 -8.0000000E-02
 -8.0000000E-02
 -7.9935501E-02
 -8.0000000E-02
 -8.0000000E-02
 -8.0000000E-02
 -8.0000000E-02
 -8.0000000E-02
 -8.0000000E-02
 -8.0000000E-02
 -8.0000000E-02
 -8.0000000E-02
 -8.0000000E-02
 -8.0000000E-02
 -8.0000000E-02
 -8.0000000E-02
 -8.0000000E-02
 -7.9975383E-02
 -8.0000000E-02
 -8.0000000E-02
 -8.0000000E-02
 -8.0000000E-02
 -8.0000000E-02
 -8.0000000E-02
 -8.0000000E-02
 -8.0000000E-02
 -8.0000000E-02
 -8.0000000E-02
 -8.0000000E-02
 -8.0000000E-02
 -8.0000000E-02
 -8.0000000E-02
 -8.0000000E-02
 -8.0000000E-02
 -8.0000000E-02
 -8.0000000E-02
 -8.0000000E-02
 -8.0000000E-02
 -8.0000000E-02
 -8.0000000E-02
 -8.0000000E-02
 -8.0000000E-02
 -8.0000000E-02
 -8.0000000E-02
 -8.0000000E-02
 -8.0000000E-02
 -8.0000000E-02
 -7.9994239E-02
 -8.0000000E-02
 -8.0000000E-02
 -8.0000000E-02
 -8.0000000E-02
 -8.0000000E-02
 -8.0000000E-02
 -8.0000000E-02
 -8.0000000E-02
 -8.0000000E-02
 -8.0000000E-02
 -8.0000000E-02
 -8.0000000E-02
 -7.9900421E-02
 -8.0000000E-02
 -8.0000000E-02
 -8.0000000E-02
 -8.0000000E-02
 -8.0000000E-02
 -8.0000000E-02
 -7.9590375E-02
 -8.0000000E-02
 -8.0000000E-02
 -8.0000000E-02
 -8.0000000E-02
 -8.0000000E-02
 -8.0000000E-02
 -8.0000000E-02
 -8.0000000E-02
 -8.0000000E-02
 -8.0000000E-02
 -8.0000000E-02
 -7.9993661E-02
 -7.8883477E-02
 -8.0000000E-02
 -8.0000000E-02
 -8.0000000E-02
 -8.0000000E-02
 -8.0000000E-02
 -8.0000000E-02
 -7.9542994E-02
 -8.0000000E-02
 -7.9530819E-02
 -8.0000000E-02
 -8.0000000E-02
 -8.0000000E-02
 -8.0000000E-02
 -8.0000000E-02
 -8.0000000E-02
 -8.0000000E-02
 -8.0000000E-02
 -8.0000000E-02
 -8.0000000E-02
 -8.0000000E-02
 -8.0000000E-02
 -7.9844507E-02
 -7.9841019E-02
 -8.0000000E-02
 -8.0000000E-02
 -8.0000000E-02
 -8.0000000E-02
 -8.0000000E-02
 -7.9947181E-02
 -8.0000000E-02
 -8.0000000E-02
 -8.0000000E-02
 -8.0000000E-02
 -8.0000000E-02
 -8.0000000E-02
 -8.0000000E-02
 -8.0000000E-02
 -8.0000000E-02
 -8.0000000E-02
 -8.0000000E-02
 -8.0000000E-02
 -8.0000000E-02
 -8.0000000E-02
 -8.0000000E-02
 -8.0000000E-02
 -8.0000000E-02
 -7.9986923E-02
 -8.0000000E-02
 -8.0000000E-02
 -8.0000000E-02
 -8.0000000E-02
 -7.9695047E-02
 -8.0000000E-02
 -8.0000000E-02
 -8.0000000E-02
 -8.0000000E-02
 -8.0000000E-02
 -8.0000000E-02
 -8.0000000E-02
 -8.0000000E-02
 -8.0000000E-02
 -8.0000000E-02
 -8.0000000E-02
 -7.9962907E-02
 -7.9994130E-02
 -8.0000000E-02
 -8.0000000E-02
 -8.0000000E-02
 -8.0000000E-02
 -8.0000000E-02
 -8.0000000E-02
 -8.0000000E-02
 -8.0000000E-02
 -8.0000000E-02
 -8.0000000E-02
 -7.9959084E-02
 -8.0000000E-02
 -8.0000000E-02
 -8.0000000E-02
 -8.0000000E-02
 -8.0000000E-02
 -8.0000000E-02
 -8.0000000E-02
 -8.0000000E-02
 -8.0000000E-02
 -8.0000000E-02
 -8.0000000E-02
 -8.0000000E-02
 -8.0000000E-02
 -7.9990719E-02
 -8.0000000E-02
 -8.0000000E-02
 -8.0000000E-02
 -8.0000000E-02
 -8.0000000E-02
 -7.9997671E-02
 -8.0000000E-02
 -7.9797373E-02
 -8.0000000E-02
 -8.0000000E-02
 -8.0000000E-02
 -8.0000000E-02
 -8.0000000E-02
 -8.0000000E-02
 -8.0000000E-02
 -8.0000000E-02
 -8.0000000E-02
 -8.0000000E-02
 -8.0000000E-02
 -8.0000000E-02
 -7.9996140E-02
 -8.0000000E-02
 -8.0000000E-02
 -8.0000000E-02
 -8.0000000E-02
 -8.0000000E-02
 -7.9984781E-02
 -8.0000000E-02
 -8.0000000E-02
 -8.0000000E-02
 -8.0000000E-02
 -8.0000000E-02
 -8.0000000E-02
 -8.0000000E-02
 -8.0000000E-02
 -8.0000000E-02
 -8.0000000E-02
 -8.0000000E-02
 -7.9950844E-02
 -8.0000000E-02
 -8.0000000E-02
 -8.0000000E-02
 -7.9885181E-02
  1.1793569E+00
  1.1796040E+00
  1.1795559E+00
  1.1794264E+00
  1.1792407E+00
  1.1790671E+00
  1.1788698E+00
  1.1783752E+00
  1.1789502E+00
  1.1783902E+00
  1.1776765E+00
  1.1784447E+00
  1.1780135E+00
  1.1773891E+00
  1.1782423E+00
  1.1779783E+00
  1.1773797E+00
  1.1779757E+00
  1.1771366E+00
  1.1776853E+00
  1.1769461E+00
  1.1784049E+00
  1.1775420E+00
  1.1779265E+00
  1.1783784E+00
  1.1789800E+00
  1.1794669E+00
  1.1786281E+00
  1.1790331E+00
  1.1784950E+00
  1.1787660E+00
  1.1787584E+00
  1.1786359E+00
  1.1783033E+00
  1.1775890E+00
  1.1777862E+00
  1.1778149E+00
  1.1779236E+00
  1.1781845E+00
  1.1784047E+00
  1.1784899E+00
  1.1783691E+00
  1.1781474E+00
  1.1777927E+00
  1.1772656E+00
  1.1764647E+00
  1.1768121E+00
  1.1775894E+00
  1.1778124E+00
  1.1788910E+00
  1.1786398E+00
  1.1791033E+00
  1.1790172E+00
  1.1794929E+00
  1.1793689E+00
  1.1792078E+00
  1.1790756E+00
  1.1789901E+00
  1.1788287E+00
  1.1786490E+00
  1.1783161E+00
  1.1780063E+00
  1.1778770E+00
  1.1776739E+00
  1.1775877E+00
  1.1773104E+00
  1.1769946E+00
  1.1779147E+00
  1.1776534E+00
  1.1774698E+00
  1.1768885E+00
  1.1761012E+00
  1.1759464E+00
  1.1769537E+00
  1.1773631E+00
  1.1785248E+00
  1.1780676E+00
  1.1780714E+00
  1.1795707E+00
  1.1794395E+00
  1.1794635E+00
  1.1794599E+00
  1.1793472E+00
  1.1792722E+00
  1.1792273E+00
  1.1790958E+00
  1.1788022E+00
  1.1785731E+00
  1.1784845E+00
  1.1784462E+00
  1.1784076E+00
  1.1783191E+00
  1.1781038E+00
  1.1775190E+00
  1.1779766E+00
  1.1780328E+00
  1.1778441E+00
  1.1774275E+00
  1.1766874E+00
  1.1778156E+00
  1.1787634E+00
  1.1791301E+00
  1.1790560E+00
  1.1787985E+00
  1.1795106E+00
  1.1789486E+00
  1.1784238E+00
  1.1786246E+00
  1.1785802E+00
  1.1784504E+00
  1.1788139E+00
  1.1778988E+00
  1.1777146E+00
  1.1771846E+00
  1.1774997E+00
  1.1776119E+00
  1.1776565E+00
  1.1778078E+00
  1.1777605E+00
  1.1778039E+00
  1.1776339E+00
  1.1774942E+00
  1.1773885E+00
  1.1771531E+00
  1.1766894E+00
  1.1777323E+00
  1.1785777E+00
  1.1789919E+00
  1.1790418E+00
  1.1787884E+00
  1.1800000E+00
  1.1800000E+00
  1.1800000E+00
  1.1800000E+00
  1.1800000E+00
  1.1800000E+00
  1.1800000E+00
  1.1800000E+00
  1.1800000E+00
  1.1800000E+00
  1.1800000E+00
  1.1800000E+00
  1.1800000E+00
  1.1800000E+00
  1.1800000E+00
  1.1800000E+00
  1.1800000E+00
  1.1800000E+00
  1.1800000E+00
  1.1800000E+00
  1.1800000E+00
  1.1800000E+00
  1.1800000E+00
  1.1800000E+00
  1.1800000E+00
  1.1800000E+00
  1.1800000E+00
  1.1800000E+00
  1.1800000E+00
  1.1800000E+00
  1.1800000E+00
  1.1800000E+00
  1.1800000E+00
  1.1800000E+00
  1.1800000E+00
  1.1800000E+00
  1.1800000E+00
  1.1800000E+00
  1.1798911E+00
  1.1794472E+00
  1.1795272E+00
  1.1799522E+00
  1.1798604E+00
  1.1799797E+00
  1.1800000E+00
  1.1800000E+00
  1.1800000E+00
  1.1800000E+00
  1.1800000E+00
  1.1800000E+00
  1.1800000E+00
  1.1800000E+00
  1.1800000E+00
  1.1798154E+00
  1.1800000E+00
  1.1800000E+00
  1.1800000E+00
  1.1800000E+00
  1.1800000E+00
  1.1800000E+00
  1.1800000E+00
  1.1800000E+00
  1.1800000E+00
  1.1800000E+00
  1.1800000E+00
  1.1800000E+00
  1.1800000E+00
  1.1800000E+00
  1.1799013E+00
  1.1800000E+00
  1.1800000E+00
  1.1800000E+00
  1.1800000E+00
  1.1800000E+00
  1.1800000E+00
  1.1800000E+00
  1.1800000E+00
  1.1800000E+00
  1.1800000E+00
  1.1800000E+00
  1.1800000E+00
  1.1800000E+00
  1.1800000E+00
  1.1800000E+00
  1.1800000E+00
  1.1800000E+00
  1.1800000E+00
  1.1800000E+00
  1.1798797E+00
  1.1800000E+00
  1.1800000E+00
  1.1800000E+00
  1.1800000E+00
  1.1800000E+00
  1.1800000E+00
  1.1800000E+00
  1.1800000E+00
  1.1800000E+00
  1.1800000E+00
  1.1800000E+00
  1.1800000E+00
  1.1800000E+00
  1.1800000E+00
  1.1800000E+00
  1.1800000E+00
  1.1800000E+00
  1.1793733E+00
  1.1800000E+00
  1.1800000E+00
  1.1800000E+00
  1.1800000E+00
  1.1800000E+00
  1.1800000E+00
  1.1800000E+00
  1.1800000E+00
  1.1800000E+00
  1.1800000E+00
  1.1800000E+00
  1.1800000E+00
  1.1800000E+00
  1.1800000E+00
  1.1800000E+00
  1.1800000E+00
  1.1800000E+00
  1.1800000E+00
  1.1800000E+00
  1.1791869E+00
  1.1800000E+00
  1.1800000E+00
  1.1800000E+00
  1.1800000E+00
  1.1800000E+00
  1.1794595E+00
  1.1800000E+00
  1.1800000E+00
  1.1800000E+00
  1.1800000E+00
  1.1800000E+00
  1.1800000E+00
  1.1800000E+00
  1.1800000E+00
  1.1800000E+00
  1.1800000E+00
  1.1800000E+00
  1.1792562E+00
  1.1799899E+00
  1.1800000E+00
  1.1800000E+00
  1.1800000E+00
  1.1800000E+00
  1.1800000E+00
  1.1800000E+00
  1.1800000E+00
  1.1800000E+00
  1.1798114E+00
  1.1800000E+00
  1.1800000E+00
  1.1800000E+00
  1.1800000E+00
  1.1800000E+00
  1.1800000E+00
  1.1800000E+00
  1.1800000E+00
  1.1800000E+00
  1.1800000E+00
  1.1800000E+00
  1.1800000E+00
  1.1800000E+00
  1.1800000E+00
  1.1794002E+00
  1.1799986E+00
  1.1800000E+00
  1.1800000E+00
  1.1800000E+00
  1.1800000E+00
  1.1800000E+00
  1.1800000E+00
  1.1797261E+00
  1.1800000E+00
  1.1800000E+00
  1.1800000E+00
  1.1800000E+00
  1.1800000E+00
  1.1800000E+00
  1.1800000E+00
  1.1800000E+00
  1.1800000E+00
  1.1800000E+00
  1.1800000E+00
  1.1800000E+00
  1.1800000E+00
  1.1800000E+00
  1.1800000E+00
  1.1800000E+00
  1.1800000E+00
  1.1800000E+00
  1.1800000E+00
  1.1800000E+00
  1.1795315E+00
  1.1800000E+00
  1.1800000E+00
  1.1800000E+00
  1.1800000E+00
  1.1800000E+00
  1.1800000E+00
  1.1800000E+00
  1.1800000E+00
  1.1800000E+00
  1.1800000E+00
  1.1792165E+00
  1.1799952E+00
  1.1800000E+00
  1.1800000E+00
  1.1800000E+00
  1.1800000E+00
  1.1800000E+00
  1.1800000E+00
  1.1800000E+00
  1.1800000E+00
  1.1800000E+00
  1.1800000E+00
  1.1800000E+00
  1.1800000E+00
  1.1800000E+00
  1.1800000E+00
  1.1800000E+00
  1.1795601E+00
  1.1800000E+00
  1.1800000E+00
  1.1800000E+00
  1.1800000E+00
  1.1800000E+00
  1.1800000E+00
  1.1800000E+00
  1.1800000E+00
  1.1800000E+00
  1.1798088E+00
  1.1800000E+00
  1.1800000E+00
  1.1800000E+00
  1.1800000E+00
  1.1800000E+00
  1.1800000E+00
  1.1800000E+00
  1.1800000E+00
  1.1791516E+00
  1.1799998E+00
  1.1800000E+00
  1.1800000E+00
  1.1800000E+00
  1.1800000E+00
  1.1800000E+00
  1.1800000E+00
  1.1800000E+00
  1.1800000E+00
  1.1800000E+00
  1.1800000E+00
  1.1800000E+00
  1.1800000E+00
  1.1800000E+00
  1.1800000E+00
  1.1800000E+00
  1.1800000E+00
  1.1795113E+00
  1.1800000E+00
  1.1800000E+00
  1.1800000E+00
  1.1800000E+00
  1.1800000E+00
  1.1800000E+00
  1.1800000E+00
  1.1800000E+00
  1.1800000E+00
  1.1800000E+00
  1.1791961E+00
  1.1800000E+00
  1.1800000E+00
  1.1800000E+00
  1.1800000E+00
  1.1800000E+00
  1.1800000E+00
  1.1800000E+00
  1.1800000E+00
  1.1800000E+00
  1.1800000E+00
  1.1800000E+00
  1.1800000E+00
  1.1800000E+00
  1.1800000E+00
  1.1800000E+00
  1.1800000E+00
  1.1800000E+00
  1.1800000E+00
  1.1800000E+00
  1.1800000E+00
  1.1800000E+00
  1.1800000E+00
  1.1800000E+00
  1.1800000E+00
  1.1797422E+00
  1.1800000E+00
  1.1800000E+00
  1.1800000E+00
  1.1800000E+00
  1.1800000E+00
  1.1800000E+00
  1.1800000E+00
  1.1800000E+00
  1.1800000E+00
  1.1800000E+00
  1.1800000E+00
  1.1800000E+00
  1.1799861E+00
  1.1800000E+00
  1.1800000E+00
  1.1800000E+00
  1.1800000E+00
  1.1800000E+00
  1.1800000E+00
  1.1800000E+00
  1.1800000E+00
  1.1800000E+00
  1.1800000E+00
  1.1800000E+00
  1.1800000E+00
  1.1800000E+00
  1.1800000E+00
  1.1800000E+00
  1.1800000E+00
  1.1800000E+00
  1.1799205E+00
  1.1800000E+00
  1.1800000E+00
  1.1800000E+00
  1.1800000E+00
  1.1800000E+00
  1.1800000E+00
  1.1800000E+00
  1.1800000E+00
  1.1800000E+00
  1.1800000E+00
  1.1800000E+00
  1.1800000E+00
  1.1800000E+00
  1.1800000E+00
  1.1800000E+00
  1.1800000E+00
  1.1799879E+00
  1.1800000E+00
  1.1800000E+00
  1.1800000E+00
  1.1800000E+00
  1.1800000E+00
  1.1800000E+00
  1.1800000E+00
  1.1800000E+00
  1.1800000E+00
  1.1800000E+00
  1.1800000E+00
  1.1800000E+00
  1.1800000E+00
  1.1800000E+00
  1.1800000E+00
  1.1800000E+00
  1.1800000E+00
  1.1800000E+00
  1.1800000E+00
  1.1800000E+00
  1.1800000E+00
  1.1800000E+00
  1.1800000E+00
  1.1800000E+00
  1.1800000E+00
  1.1800000E+00
  1.1799904E+00
  1.1800000E+00
  1.1800000E+00
  1.1800000E+00
  1.1800000E+00
  1.1800000E+00
  1.1800000E+00
  1.1800000E+00
  1.1800000E+00
  1.1800000E+00
  1.1800000E+00
  1.1800000E+00
  1.1800000E+00
  1.1800000E+00
  1.1800000E+00
  1.1800000E+00
  1.1800000E+00
  1.1800000E+00
  1.1800000E+00
  1.1800000E+00
  1.1800000E+00
  1.1800000E+00
  1.1800000E+00
  1.1800000E+00
  1.1800000E+00
  1.1800000E+00
  1.1800000E+00
  1.1794549E+00
  1.1799298E+00
  1.1800000E+00
  1.1800000E+00
  1.1800000E+00
  1.1800000E+00
  1.1800000E+00
  1.1800000E+00
  1.1800000E+00
  1.1800000E+00
  1.1800000E+00
  1.1800000E+00
  1.1800000E+00
  1.1800000E+00
  1.1800000E+00
  1.1800000E+00
  1.1800000E+00
  1.1800000E+00
  1.1800000E+00
  1.1800000E+00
  1.1800000E+00
  1.1800000E+00
  1.1800000E+00
  1.1800000E+00
  1.1800000E+00
  1.1800000E+00
  1.1800000E+00
  1.1800000E+00
  1.1800000E+00
  1.1800000E+00
  1.1800000E+00
  1.1800000E+00
  1.1800000E+00
  1.1800000E+00
  1.1800000E+00
  1.1800000E+00
  1.1800000E+00
  1.1800000E+00
  1.1800000E+00
  1.1800000E+00
  1.1800000E+00
  1.1800000E+00
  1.1800000E+00
  1.1800000E+00
  1.1800000E+00
  1.1800000E+00
  1.1800000E+00
  1.1800000E+00
  1.1800000E+00
  1.1800000E+00
  1.1800000E+00
  1.1800000E+00
  1.1800000E+00
  1.1800000E+00
  1.1800000E+00
  1.1800000E+00
  1.1800000E+00
  1.1799949E+00
  1.1800000E+00
  1.1800000E+00
  1.1800000E+00
  1.1800000E+00
  1.1800000E+00
  1.1800000E+00
  1.1800000E+00
  1.1800000E+00
  1.1800000E+00
  1.1800000E+00
  1.1800000E+00
  1.1800000E+00
  1.1800000E+00
  1.1800000E+00
  1.1800000E+00
  1.1800000E+00
  1.1800000E+00
  1.1800000E+00
  1.1800000E+00
  1.1800000E+00
  1.1800000E+00
  1.1800000E+00
  1.1800000E+00
  1.1800000E+00
  1.1800000E+00
  1.1800000E+00
  1.1800000E+00
  1.1800000E+00
  1.1800000E+00
  1.1800000E+00
  1.1800000E+00
  1.1800000E+00
  1.1800000E+00
  1.1800000E+00
  1.1800000E+00
  1.1800000E+00
  1.1800000E+00
  1.1800000E+00
  1.1800000E+00
  1.1800000E+00
  1.1800000E+00
  1.1800000E+00
  1.1800000E+00
  1.1800000E+00
  1.1800000E+00
  1.1800000E+00
  1.1800000E+00
  1.1800000E+00
  1.1800000E+00
  1.1800000E+00
  1.1800000E+00
  1.1800000E+00
  1.1800000E+00
  1.1800000E+00
  1.1800000E+00
  1.1800000E+00
  1.1800000E+00
  1.1800000E+00
  1.1800000E+00
  1.1800000E+00
  1.1800000E+00
  1.1800000E+00
  1.1800000E+00
  1.1800000E+00
  1.1800000E+00
  1.1800000E+00
  1.1800000E+00
  1.1800000E+00
  1.1800000E+00
  1.1800000E+00
  1.1800000E+00
  1.1800000E+00
  1.1800000E+00
  1.1800000E+00
  1.1800000E+00
  1.1800000E+00
  1.1800000E+00
  1.1800000E+00
  1.1800000E+00
  1.1800000E+00
  1.1800000E+00
  1.1800000E+00
  1.1800000E+00
  1.1800000E+00
  1.1800000E+00
  1.1800000E+00
  1.1800000E+00
  1.1800000E+00
  1.1800000E+00
  1.1800000E+00
  1.1800000E+00
  1.1800000E+00
  1.1800000E+00
  1.1799408E+00
  1.1800000E+00
  1.1800000E+00
  1.1800000E+00
  1.1800000E+00
  1.1800000E+00
  1.1800000E+00
  1.1800000E+00
  1.1800000E+00
  1.1800000E+00
  1.1800000E+00
  1.1792604E+00
  1.1798334E+00
  1.1800000E+00
  1.1800000E+00
  1.1800000E+00
  1.1800000E+00
  1.1800000E+00
  1.1800000E+00
  1.1800000E+00
  1.1800000E+00
  1.1800000E+00
  1.1800000E+00
  1.1800000E+00
  1.1800000E+00
  1.1800000E+00
  1.1800000E+00
  1.1800000E+00
  1.1800000E+00
  1.1800000E+00
  1.1800000E+00
  1.1800000E+00
  1.1799648E+00
  1.1800000E+00
  1.1800000E+00
  1.1800000E+00
  1.1800000E+00
  1.1800000E+00
  1.1800000E+00
  1.1800000E+00
  1.1800000E+00
  1.1800000E+00
  1.1800000E+00
  1.1800000E+00
  1.1800000E+00
  1.1800000E+00
  1.1800000E+00
  1.1800000E+00
  1.1799771E+00
  1.1800000E+00
  1.1800000E+00
  1.1800000E+00
  1.1800000E+00
  1.1800000E+00
  1.1800000E+00
  1.1800000E+00
  1.1800000E+00
  1.1800000E+00
  1.1800000E+00
  1.1800000E+00
  1.1800000E+00
  1.1800000E+00
  1.1800000E+00
  1.1800000E+00
  1.1800000E+00
  1.1800000E+00
  1.1800000E+00
  1.1800000E+00
  1.1800000E+00
  1.1800000E+00
  1.1800000E+00
  1.1800000E+00
  1.1800000E+00
  1.1800000E+00
  1.1800000E+00
  1.1800000E+00
  1.1799830E+00
  1.1800000E+00
  1.1800000E+00
  1.1800000E+00
  1.1800000E+00
  1.1800000E+00
  1.1800000E+00
  1.1800000E+00
  1.1800000E+00
  1.1800000E+00
  1.1800000E+00
  1.1799831E+00
  1.1800000E+00
  1.1800000E+00
  1.1800000E+00
  1.1800000E+00
  1.1796801E+00
  1.1799349E+00
  1.1800000E+00
  1.1800000E+00
  1.1800000E+00
  1.1800000E+00
  1.1800000E+00
  1.1800000E+00
  1.1800000E+00
  1.1800000E+00
  1.1800000E+00
  1.1800000E+00
  1.1800000E+00
  1.1800000E+00
  1.1800000E+00
  1.1800000E+00
  1.1800000E+00
  1.1800000E+00
  1.1800000E+00
  1.1800000E+00
  1.1800000E+00
  1.1800000E+00
  1.1800000E+00
  1.1800000E+00
  1.1800000E+00
  1.1800000E+00
  1.1800000E+00
  1.1800000E+00
  1.1800000E+00
  1.1800000E+00
  1.1800000E+00
  1.1799695E+00
  1.1800000E+00
  1.1800000E+00
  1.1800000E+00
  1.1800000E+00
  1.1800000E+00
  1.1800000E+00
  1.1800000E+00
  1.1800000E+00
  1.1800000E+00
  1.1800000E+00
  1.1800000E+00
  1.1800000E+00
  1.1799619E+00
  1.1800000E+00
  1.1800000E+00
  1.1800000E+00
  1.1800000E+00
  1.1800000E+00
  1.1800000E+00
  1.1800000E+00
  1.1800000E+00
  1.1800000E+00
  1.1800000E+00
  1.1800000E+00
  1.1800000E+00
  1.1799789E+00
  1.1800000E+00
  1.1800000E+00
  1.1800000E+00
  1.1800000E+00
  1.1800000E+00
  1.1800000E+00
  1.1800000E+00
  1.1800000E+00
  1.1800000E+00
  1.1800000E+00
  1.1800000E+00
  1.1800000E+00
  1.1800000E+00
  1.1800000E+00
  1.1800000E+00
  1.1800000E+00
  1.1799073E+00
  1.1800000E+00
  1.1800000E+00
  1.1800000E+00
  1.1800000E+00
  1.1800000E+00
  1.1800000E+00
  1.1800000E+00
  1.1800000E+00
  1.1800000E+00
  1.1800000E+00
  1.1800000E+00
  1.1800000E+00
  1.1800000E+00
  1.1800000E+00
  1.1800000E+00
  1.1797898E+00
  1.1800000E+00
  1.1800000E+00
  1.1800000E+00
  1.1800000E+00
  1.1799241E+00
  1.1800000E+00
  1.1800000E+00
  1.1800000E+00
  1.1800000E+00
  1.1800000E+00
  1.1800000E+00
  1.1800000E+00
  1.1800000E+00
  1.1800000E+00
  1.1800000E+00
  1.1800000E+00
  1.1800000E+00
  1.1800000E+00
  1.1800000E+00
  1.1800000E+00
  1.1800000E+00
  1.1800000E+00
  1.1800000E+00
  1.1800000E+00
  1.1800000E+00
  1.1800000E+00
  1.1800000E+00
  1.1796008E+00
  1.1800000E+00
  1.1800000E+00
  1.1800000E+00
  1.1800000E+00
  1.1800000E+00
  1.1800000E+00
  1.1800000E+00
  1.1800000E+00
  1.1800000E+00
  1.1800000E+00
  1.1800000E+00
  1.1800000E+00
  1.1800000E+00
  1.1800000E+00
  1.1800000E+00
  1.1800000E+00
  1.1800000E+00
  1.1800000E+00
  1.1800000E+00
  1.1794831E+00
  1.1800000E+00
  1.1800000E+00
  1.1800000E+00
  1.1800000E+00
  1.1800000E+00
  1.1800000E+00
  1.1800000E+00
  1.1800000E+00
  1.1800000E+00
  1.1800000E+00
  1.1800000E+00
  1.1800000E+00
  1.1800000E+00
  1.1800000E+00
  1.1800000E+00
  1.1800000E+00
  1.1800000E+00
  1.1800000E+00
  1.1800000E+00
  1.1800000E+00
  1.1800000E+00
  1.1800000E+00
  1.1800000E+00
  1.1800000E+00
  1.1800000E+00
  1.1800000E+00
  1.1800000E+00
  1.1800000E+00
  1.1800000E+00
  1.1800000E+00
  1.1799874E+00
  1.1800000E+00
  1.1800000E+00
  1.1800000E+00
  1.1800000E+00
  1.1800000E+00
  1.1800000E+00
  1.1800000E+00
  1.1800000E+00
  1.1800000E+00
  1.1799999E+00
  1.1800000E+00
  1.1800000E+00
  1.1800000E+00
  1.1800000E+00
  1.1800000E+00
  1.1800000E+00
  1.1800000E+00
  1.1800000E+00
  1.1800000E+00
  1.1800000E+00
  1.1800000E+00
  1.1800000E+00
  1.1800000E+00
  1.1799951E+00
  1.1800000E+00
  1.1800000E+00
  1.1800000E+00
  1.1800000E+00
  1.1800000E+00
  1.1800000E+00
  1.1800000E+00
  1.1800000E+00
  1.1800000E+00
  1.1800000E+00
  1.1800000E+00
  1.1800000E+00
  1.1800000E+00
  1.1800000E+00
  1.1800000E+00
  1.1800000E+00
  1.1800000E+00
  1.1800000E+00
  1.1800000E+00
  1.1800000E+00
  1.1799242E+00
  1.1800000E+00
  1.1800000E+00
  1.1800000E+00
  1.1800000E+00
  1.1800000E+00
  1.1800000E+00
  1.1800000E+00
  1.1800000E+00
  1.1800000E+00
  1.1800000E+00
  1.1800000E+00
  1.1797274E+00
  1.1800000E+00
  1.1800000E+00
  1.1800000E+00
  1.1800000E+00
  1.1800000E+00
  1.1800000E+00
  1.1800000E+00
  1.1800000E+00
  1.1800000E+00
  1.1800000E+00
  1.1800000E+00
  1.1800000E+00
  1.1800000E+00
  1.1800000E+00
  1.1800000E+00
  1.1800000E+00
  1.1800000E+00
  1.1800000E+00
  1.1800000E+00
  1.1800000E+00
  1.1800000E+00
  1.1800000E+00
  1.1800000E+00
  1.1800000E+00
  1.1800000E+00
  1.1800000E+00
  1.1800000E+00
  1.1800000E+00
  1.1800000E+00
  1.1800000E+00
  1.1800000E+00
  1.1800000E+00
  1.1800000E+00
  1.1800000E+00
  1.1800000E+00
  1.1800000E+00
  1.1800000E+00
  1.1800000E+00
  1.1800000E+00
  1.1800000E+00
  1.1800000E+00
  1.1800000E+00
  1.1800000E+00
  1.1799573E+00
  1.1800000E+00
  1.1800000E+00
  1.1800000E+00
  1.1800000E+00
  1.1800000E+00
  1.1800000E+00
  1.1800000E+00
  1.1800000E+00
  1.1800000E+00
  1.1799556E+00
  1.1800000E+00
  1.1800000E+00
  1.1800000E+00
  1.1800000E+00
  1.1800000E+00
  1.1800000E+00
  1.1800000E+00
  1.1800000E+00
  1.1800000E+00
  1.1800000E+00
  1.1800000E+00
  1.1800000E+00
  1.1800000E+00
  1.1800000E+00
  1.1800000E+00
  1.1800000E+00
  1.1800000E+00
  1.1800000E+00
  1.1800000E+00
  1.1800000E+00
  1.1800000E+00
  1.1800000E+00
  1.1800000E+00
  1.1800000E+00
  1.1800000E+00
  1.1800000E+00
  1.1800000E+00
  1.1800000E+00
  1.1800000E+00
  1.1800000E+00
  1.1800000E+00
  1.1800000E+00
  1.1800000E+00
  1.1800000E+00
  1.1800000E+00
  1.1800000E+00
  1.1800000E+00
  1.1799316E+00
  1.1800000E+00
  1.1800000E+00
  1.1800000E+00
  1.1800000E+00
  1.1800000E+00
  1.1800000E+00
  1.1800000E+00
  1.1799992E+00
  1.1800000E+00
  1.1800000E+00
  1.1800000E+00
  1.1800000E+00
  1.1800000E+00
  1.1800000E+00
  1.1800000E+00
  1.1800000E+00
  1.1800000E+00
  1.1800000E+00
  1.1800000E+00
  1.1800000E+00
  1.1800000E+00
  1.1800000E+00
  1.1800000E+00
  1.1800000E+00
  1.1800000E+00
  1.1800000E+00
  1.1800000E+00
  1.1800000E+00
  1.1800000E+00
  1.1800000E+00
  1.1800000E+00
  1.1800000E+00
  1.1800000E+00
  1.1800000E+00
  1.1800000E+00
  1.1800000E+00
  1.1800000E+00
  1.1800000E+00
  1.1799063E+00
  1.1800000E+00
  1.1800000E+00
  1.1800000E+00
  1.1800000E+00
  1.1800000E+00
  1.1800000E+00
  1.1796282E+00
  1.1800000E+00
  1.1800000E+00
  1.1800000E+00
  1.1800000E+00
  1.1800000E+00
  1.1800000E+00
  1.1800000E+00
  1.1800000E+00
  1.1800000E+00
  1.1800000E+00
  1.1800000E+00
  1.1800000E+00
  1.1800000E+00
  1.1800000E+00
  1.1800000E+00
  1.1800000E+00
  1.1800000E+00
  1.1800000E+00
  1.1800000E+00
  1.1800000E+00
  1.1798127E+00
  1.1800000E+00
  1.1800000E+00
  1.1800000E+00
  1.1800000E+00
  1.1800000E+00
  1.1794471E+00
  1.1800000E+00
  1.1800000E+00
  1.1800000E+00
  1.1800000E+00
  1.1800000E+00
  1.1800000E+00
  1.1800000E+00
  1.1800000E+00
  1.1800000E+00
  1.1800000E+00
  1.1800000E+00
  1.1800000E+00
  1.1800000E+00
  1.1800000E+00
  1.1800000E+00
  1.1800000E+00
  1.1800000E+00
  1.1800000E+00
  1.1800000E+00
  1.1800000E+00
  1.1800000E+00
  1.1800000E+00
  1.1800000E+00
  1.1800000E+00
  1.1800000E+00
  1.1800000E+00
  1.1800000E+00
  1.1800000E+00
  1.1796668E+00
  1.1800000E+00
  1.1800000E+00
  1.1800000E+00
  1.1800000E+00
  1.1791721E+00
  1.1799945E+00
  1.1800000E+00
  1.1800000E+00
  1.1800000E+00
  1.1800000E+00
  1.1800000E+00
  1.1800000E+00
  1.1800000E+00
  1.1800000E+00
  1.1800000E+00
  1.1800000E+00
  1.1800000E+00
  1.1800000E+00
  1.1800000E+00
  1.1800000E+00
  1.1800000E+00
  1.1800000E+00
  1.1800000E+00
  1.1800000E+00
  1.1800000E+00
  1.1800000E+00
  1.1792602E+00
  1.1800000E+00
  1.1800000E+00
  1.1800000E+00
  1.1799267E+00
  1.1800000E+00
  1.1800000E+00
  1.1800000E+00
  1.1800000E+00
  1.1800000E+00
  1.1800000E+00
  1.1800000E+00
  1.1800000E+00
  1.1800000E+00
  1.1800000E+00
  1.1800000E+00
  1.1800000E+00
  1.1800000E+00
  1.1800000E+00
  1.1800000E+00
  1.1800000E+00
  1.1800000E+00
  1.1800000E+00
  1.1800000E+00
  1.1800000E+00
  1.1800000E+00
  1.1800000E+00
  1.1800000E+00
  1.1794989E+00
  1.1800000E+00
  1.1800000E+00
  1.1797894E+00
  1.1800000E+00
  1.1800000E+00
  1.1800000E+00
  1.1800000E+00
  1.1800000E+00
  1.1800000E+00
  1.1800000E+00
  1.1800000E+00
  1.1800000E+00
  1.1800000E+00
  1.1800000E+00
  1.1800000E+00
  1.1800000E+00
  1.1800000E+00
  1.1800000E+00
  1.1800000E+00
  1.1800000E+00
  1.1790358E+00
  1.1799935E+00
  1.1800000E+00
  1.1800000E+00
  1.1800000E+00
  1.1800000E+00
  1.1800000E+00
  1.1800000E+00
  1.1800000E+00
  1.1786865E+00
  1.1790900E+00
  1.1800000E+00
  1.1800000E+00
  1.1800000E+00
  1.1800000E+00
  1.1800000E+00
  1.1800000E+00
  1.1800000E+00
  1.1800000E+00
  1.1800000E+00
  1.1800000E+00
  1.1800000E+00
  1.1800000E+00
  1.1800000E+00
  1.1800000E+00
  1.1800000E+00
  1.1800000E+00
  1.1800000E+00
  1.1800000E+00
  1.1800000E+00
  1.1800000E+00
  1.1800000E+00
  1.1792048E+00
  1.1799897E+00
  1.1800000E+00
  1.1800000E+00
  1.1800000E+00
  1.1800000E+00
  1.1800000E+00
  1.1800000E+00
  1.1800000E+00
  1.1800000E+00
  1.1800000E+00
  1.1800000E+00
  1.1800000E+00
  1.1797216E+00
  1.1800000E+00
  1.1800000E+00
  1.1800000E+00
  1.1800000E+00
  1.1800000E+00
  1.1800000E+00
  1.1800000E+00
  1.1800000E+00
  1.1800000E+00
  1.1800000E+00
  1.1800000E+00
  1.1800000E+00
  1.1800000E+00
  1.1800000E+00
  1.1800000E+00
  1.1800000E+00
  1.1800000E+00
  1.1800000E+00
  1.1800000E+00
  1.1800000E+00
  1.1799125E+00
  1.1799988E+00
  1.1800000E+00
  1.1800000E+00
  1.1800000E+00
  1.1800000E+00
  1.1800000E+00
  1.1800000E+00
  1.1800000E+00
  1.1800000E+00
  1.1800000E+00
  1.1800000E+00
  1.1797839E+00
  1.1799821E+00
  1.1800000E+00
  1.1800000E+00
  1.1800000E+00
  1.1800000E+00
  1.1800000E+00
  1.1800000E+00
  1.1800000E+00
  1.1800000E+00
  1.1800000E+00
  1.1800000E+00
  1.1800000E+00
  1.1800000E+00
  1.1800000E+00
  1.1800000E+00
  1.1800000E+00
  1.1800000E+00
  1.1800000E+00
  1.1798501E+00
  1.1799527E+00
  1.1800000E+00
  1.1800000E+00
  1.1800000E+00
  1.1800000E+00
  1.1800000E+00
  1.1800000E+00
  1.1800000E+00
  1.1800000E+00
  1.1800000E+00
  1.1795235E+00
  1.1800000E+00
  1.1800000E+00
  1.1800000E+00
  1.1800000E+00
  1.1800000E+00
  1.1800000E+00
  1.1800000E+00
  1.1794124E+00
  1.1797603E+00
  1.1799474E+00
  1.1800000E+00
  1.1800000E+00
  1.1800000E+00
  1.1800000E+00
  1.1800000E+00
  1.1800000E+00
  1.1800000E+00
  1.1800000E+00
  1.1800000E+00
  1.1799822E+00
  1.1799393E+00
  1.1798161E+00
  1.1799737E+00
  1.1798968E+00
  1.1795577E+00
  1.1789901E+00
  1.1796991E+00
  1.1795056E+00
 -1.9420323E-02
 -1.8315390E-02
 -2.0690377E-02
 -2.2402263E-02
 -2.2965331E-02
 -2.2835147E-02
 -2.2264172E-02
 -2.1641985E-02
 -2.0974074E-02
 -2.0257981E-02
 -1.9816686E-02
 -2.0064094E-02
 -2.1237985E-02
 -2.3001312E-02
 -2.4995313E-02
 -2.7313544E-02
 -2.4556769E-02
 -2.6521710E-02
 -2.5978067E-02
 -2.4410487E-02
 -2.3061383E-02
 -2.1829816E-02
 -2.0357768E-02
 -1.9429179E-02
  9.8572311E-01
  9.7629688E-01
  9.6716891E-01
  9.5741186E-01
  9.4747500E-01
  9.3876250E-01
  9.3142636E-01
  9.2352795E-01
  9.1460386E-01
  9.0512730E-01
  8.9534498E-01
  8.8536522E-01
  8.7519261E-01
  8.6467566E-01
  8.5292409E-01
  8.4130135E-01
  8.3048757E-01
  8.1967427E-01
  8.0863096E-01
  7.9787416E-01
  7.8758195E-01
  7.7680468E-01
  7.6726482E-01
  7.5940482E-01
  7.5038000E-01
  7.4078767E-01
  7.3089749E-01
  7.2080815E-01
  7.1054224E-01
  7.0006908E-01
  6.8929800E-01
  6.7806591E-01
  6.6654035E-01
  6.5503804E-01
  6.4375653E-01
  6.3250747E-01
  6.2051504E-01
  6.0828108E-01