 VARIABLES = "X" "Y" "Z" "CURVATURE RADIUS"
 ZONE T="pass_34"
N=33151 E=66298
 ZONETYPE=FETriangle
 DATAPACKING=BLOCK
 VARLOCATION = ([1-4]=NODAL)
 
 -7.8855635E-02
 -7.8376764E-02
 -7.8715156E-02
 -7.8770967E-02
 -7.8709744E-02
 -7.8562145E-02
 -7.8315987E-02
 -7.8033057E-02
 -7.7925432E-02
 -7.7953422E-02
 -7.8159020E-02
 -7.8469284E-02
 -7.8772098E-02
 -7.8768280E-02
 -7.9217205E-02
 -7.9009808E-02
 -7.8641296E-02
 -7.8139369E-02
 -7.7490482E-02
 -7.6663972E-02
 -7.7041095E-02
 -7.8192622E-02
 -7.8183346E-02
 -7.8460086E-02
 -7.8705952E-02
 -7.8816049E-02
 -7.9397228E-02
 -7.8735135E-02
 -7.8695675E-02
 -7.8618460E-02
 -7.8597501E-02
 -7.8517121E-02
 -7.8295944E-02
 -7.7926794E-02
 -7.7872675E-02
 -7.8190517E-02
 -7.8389090E-02
 -7.8453237E-02
 -7.8418450E-02
 -7.8661824E-02
 -7.8949716E-02
 -7.9158379E-02
 -7.8317594E-02
 -7.8668733E-02
 -7.7765952E-02
 -7.7992942E-02
 -7.6730333E-02
 -7.7197612E-02
 -7.7986129E-02
 -7.7268681E-02
 -7.7924408E-02
 -7.8434218E-02
 -7.8986929E-02
 -7.8688920E-02
 -7.8171530E-02
 -7.8436323E-02
 -7.8435201E-02
 -7.8309641E-02
 -7.7960884E-02
 -7.7616097E-02
 -7.7465958E-02
 -7.7167870E-02
 -7.8316366E-02
 -7.8089584E-02
 -7.7931836E-02
 -8.0000000E-02
 -8.0000000E-02
 -7.9831601E-02
 -8.0000000E-02
 -7.9776840E-02
 -7.9976358E-02
 -7.9941065E-02
 -7.9965480E-02
 -7.9964388E-02
 -8.0000000E-02
 -7.9835432E-02
 -7.9706421E-02
 -7.9557492E-02
 -7.9888641E-02
 -7.9638932E-02
 -7.9237281E-02
 -8.0000000E-02
 -7.9943531E-02
 -8.0000000E-02
 -7.9919427E-02
 -7.9997025E-02
 -8.0000000E-02
 -7.9993700E-02
 -7.9782495E-02
 -8.0000000E-02
 -8.0000000E-02
 -8.0000000E-02
 -8.0000000E-02
 -8.0000000E-02
 -8.0000000E-02
 -8.0000000E-02
 -7.9976246E-02
 -8.0000000E-02
 -8.0000000E-02
 -8.0000000E-02
 -8.0000000E-02
 -7.9811093E-02
 -8.0000000E-02
 -8.0000000E-02
 -8.0000000E-02
 -8.0000000E-02
 -7.9788108E-02
 -7.9871460E-02
 -7.9997399E-02
 -8.0000000E-02
 -8.0000000E-02
 -8.0000000E-02
 -7.9872193E-02
 -8.0000000E-02
 -8.0000000E-02
 -8.0000000E-02
 -8.0000000E-02
 -8.0000000E-02
 -8.0000000E-02
 -8.0000000E-02
 -8.0000000E-02
 -8.0000000E-02
 -7.9904501E-02
 -8.0000000E-02
 -8.0000000E-02
 -8.0000000E-02
 -8.0000000E-02
 -8.0000000E-02
 -7.9913031E-02
 -8.0000000E-02
 -8.0000000E-02
 -8.0000000E-02
 -8.0000000E-02
 -8.0000000E-02
 -8.0000000E-02
 -8.0000000E-02
 -8.0000000E-02
 -8.0000000E-02
 -7.9904083E-02
 -8.0000000E-02
 -8.0000000E-02
 -8.0000000E-02
 -8.0000000E-02
 -8.0000000E-02
 -8.0000000E-02
 -8.0000000E-02
 -8.0000000E-02
 -7.9900868E-02
 -8.0000000E-02
 -8.0000000E-02
 -8.0000000E-02
 -8.0000000E-02
 -8.0000000E-02
 -8.0000000E-02
 -8.0000000E-02
 -8.0000000E-02
 -8.0000000E-02
 -8.0000000E-02
 -7.9926056E-02
 -8.0000000E-02
 -8.0000000E-02
 -8.0000000E-02
 -8.0000000E-02
 -8.0000000E-02
 -8.0000000E-02
 -8.0000000E-02
 -7.9955810E-02
 -8.0000000E-02
 -8.0000000E-02
 -8.0000000E-02
 -8.0000000E-02
 -8.0000000E-02
 -8.0000000E-02
 -8.0000000E-02
 -8.0000000E-02
 -8.0000000E-02
 -8.0000000E-02
 -8.0000000E-02
 -8.0000000E-02
 -8.0000000E-02
 -7.9969182E-02
 -8.0000000E-02
 -8.0000000E-02
 -8.0000000E-02
 -7.9908340E-02
 -8.0000000E-02
 -8.0000000E-02
 -8.0000000E-02
 -8.0000000E-02
 -8.0000000E-02
 -8.0000000E-02
 -8.0000000E-02
 -8.0000000E-02
 -8.0000000E-02
 -8.0000000E-02
 -8.0000000E-02
 -8.0000000E-02
 -8.0000000E-02
 -8.0000000E-02
 -7.9958817E-02
 -8.0000000E-02
 -8.0000000E-02
 -8.0000000E-02
 -8.0000000E-02
 -8.0000000E-02
 -8.0000000E-02
 -8.0000000E-02
 -8.0000000E-02
 -8.0000000E-02
 -8.0000000E-02
 -8.0000000E-02
 -8.0000000E-02
 -8.0000000E-02
 -8.0000000E-02
 -8.0000000E-02
 -8.0000000E-02
 -8.0000000E-02
 -8.0000000E-02
 -8.0000000E-02
 -8.0000000E-02
 -8.0000000E-02
 -8.0000000E-02
 -8.0000000E-02
 -8.0000000E-02
 -8.0000000E-02
 -8.0000000E-02
 -8.0000000E-02
 -7.9999031E-02
 -8.0000000E-02
 -7.9984585E-02
 -8.0000000E-02
 -8.0000000E-02
 -8.0000000E-02
 -8.0000000E-02
 -8.0000000E-02
 -8.0000000E-02
 -8.0000000E-02
 -8.0000000E-02
 -8.0000000E-02
 -8.0000000E-02
 -8.0000000E-02
 -8.0000000E-02
 -7.9868321E-02
 -8.0000000E-02
 -8.0000000E-02
 -8.0000000E-02
 -8.0000000E-02
 -8.0000000E-02
 -8.0000000E-02
 -7.9532089E-02
 -8.0000000E-02
 -8.0000000E-02
 -8.0000000E-02
 -8.0000000E-02
 -8.0000000E-02
 -8.0000000E-02
 -8.0000000E-02
 -8.0000000E-02
 -8.0000000E-02
 -8.0000000E-02
 -8.0000000E-02
 -7.9983685E-02
 -7.8801171E-02
 -8.0000000E-02
 -8.0000000E-02
 -8.0000000E-02
 -8.0000000E-02
 -8.0000000E-02
 -8.0000000E-02
 -7.9491563E-02
 -8.0000000E-02
 -7.9468225E-02
 -8.0000000E-02
 -8.0000000E-02
 -8.0000000E-02
 -8.0000000E-02
 -8.0000000E-02
 -8.0000000E-02
 -8.0000000E-02
 -8.0000000E-02
 -8.0000000E-02
 -8.0000000E-02
 -8.0000000E-02
 -8.0000000E-02
 -7.9805537E-02
 -7.9800633E-02
 -8.0000000E-02
 -8.0000000E-02
 -8.0000000E-02
 -8.0000000E-02
 -8.0000000E-02
 -7.9922390E-02
 -8.0000000E-02
 -8.0000000E-02
 -8.0000000E-02
 -8.0000000E-02
 -8.0000000E-02
 -8.0000000E-02
 -8.0000000E-02
 -8.0000000E-02
 -8.0000000E-02
 -8.0000000E-02
 -8.0000000E-02
 -8.0000000E-02
 -8.0000000E-02
 -8.0000000E-02
 -8.0000000E-02
 -8.0000000E-02
 -8.0000000E-02
 -7.9972990E-02
 -8.0000000E-02
 -8.0000000E-02
 -8.0000000E-02
 -8.0000000E-02
 -7.9653249E-02
 -8.0000000E-02
 -8.0000000E-02
 -8.0000000E-02
 -8.0000000E-02
 -8.0000000E-02
 -8.0000000E-02
 -8.0000000E-02
 -8.0000000E-02
 -8.0000000E-02
 -8.0000000E-02
 -8.0000000E-02
 -7.9943470E-02
 -7.9984255E-02
 -8.0000000E-02
 -8.0000000E-02
 -8.0000000E-02
 -8.0000000E-02
 -8.0000000E-02
 -8.0000000E-02
 -8.0000000E-02
 -8.0000000E-02
 -8.0000000E-02
 -8.0000000E-02
 -7.9936919E-02
 -8.0000000E-02
 -8.0000000E-02
 -8.0000000E-02
 -8.0000000E-02
 -8.0000000E-02
 -8.0000000E-02
 -8.0000000E-02
 -8.0000000E-02
 -8.0000000E-02
 -8.0000000E-02
 -8.0000000E-02
 -8.0000000E-02
 -8.0000000E-02
 -7.9979591E-02
 -8.0000000E-02
 -8.0000000E-02
 -8.0000000E-02
 -8.0000000E-02
 -8.0000000E-02
 -7.9991546E-02
 -8.0000000E-02
 -7.9763848E-02
 -8.0000000E-02
 -8.0000000E-02
 -8.0000000E-02
 -8.0000000E-02
 -8.0000000E-02
 -8.0000000E-02
 -8.0000000E-02
 -8.0000000E-02
 -8.0000000E-02
 -8.0000000E-02
 -8.0000000E-02
 -8.0000000E-02
 -7.9989282E-02
 -8.0000000E-02
 -8.0000000E-02
 -8.0000000E-02
 -8.0000000E-02
 -8.0000000E-02
 -7.9973368E-02
 -8.0000000E-02
 -8.0000000E-02
 -8.0000000E-02
 -8.0000000E-02
 -8.0000000E-02
 -8.0000000E-02
 -8.0000000E-02
 -8.0000000E-02
 -8.0000000E-02
 -8.0000000E-02
 -8.0000000E-02
 -7.9933055E-02
 -8.0000000E-02
 -8.0000000E-02
 -8.0000000E-02
 -7.9859400E-02
  1.1792835E+00
  1.1795488E+00
  1.1795019E+00
  1.1793681E+00
  1.1791750E+00
  1.1789957E+00
  1.1787948E+00
  1.1782928E+00
  1.1788762E+00
  1.1783100E+00
  1.1775920E+00
  1.1783659E+00
  1.1779354E+00
  1.1773107E+00
  1.1781684E+00
  1.1779095E+00
  1.1773106E+00
  1.1778987E+00
  1.1770570E+00
  1.1776038E+00
  1.1768620E+00
  1.1783288E+00
  1.1774520E+00
  1.1778401E+00
  1.1782897E+00
  1.1788965E+00
  1.1794014E+00
  1.1785371E+00
  1.1789548E+00
  1.1784129E+00
  1.1786907E+00
  1.1786831E+00
  1.1785608E+00
  1.1782266E+00
  1.1775099E+00
  1.1777032E+00
  1.1777293E+00
  1.1778413E+00
  1.1781123E+00
  1.1783433E+00
  1.1784337E+00
  1.1783101E+00
  1.1780840E+00
  1.1777237E+00
  1.1771915E+00
  1.1763895E+00
  1.1767314E+00
  1.1774894E+00
  1.1777099E+00
  1.1788031E+00
  1.1785431E+00
  1.1790174E+00
  1.1789264E+00
  1.1794240E+00
  1.1792962E+00
  1.1791298E+00
  1.1789930E+00
  1.1789045E+00
  1.1787388E+00
  1.1785555E+00
  1.1782144E+00
  1.1779020E+00
  1.1777751E+00
  1.1775741E+00
  1.1774936E+00
  1.1772188E+00
  1.1769106E+00
  1.1778297E+00
  1.1775692E+00
  1.1773887E+00
  1.1768037E+00
  1.1760213E+00
  1.1758671E+00
  1.1768559E+00
  1.1772606E+00
  1.1784297E+00
  1.1779613E+00
  1.1779646E+00
  1.1795049E+00
  1.1793729E+00
  1.1794007E+00
  1.1793985E+00
  1.1792813E+00
  1.1792033E+00
  1.1791565E+00
  1.1790204E+00
  1.1787187E+00
  1.1784862E+00
  1.1784008E+00
  1.1783670E+00
  1.1783336E+00
  1.1782505E+00
  1.1780392E+00
  1.1774583E+00
  1.1779171E+00
  1.1779715E+00
  1.1777766E+00
  1.1773517E+00
  1.1765987E+00
  1.1777161E+00
  1.1786696E+00
  1.1790435E+00
  1.1789634E+00
  1.1786967E+00
  1.1794455E+00
  1.1788666E+00
  1.1783410E+00
  1.1785473E+00
  1.1785017E+00
  1.1783707E+00
  1.1787385E+00
  1.1778144E+00
  1.1776331E+00
  1.1771104E+00
  1.1774278E+00
  1.1775394E+00
  1.1775851E+00
  1.1777366E+00
  1.1776869E+00
  1.1777316E+00
  1.1775568E+00
  1.1774160E+00
  1.1773095E+00
  1.1770728E+00
  1.1766043E+00
  1.1776353E+00
  1.1784861E+00
  1.1789049E+00
  1.1789537E+00
  1.1786916E+00
  1.1800000E+00
  1.1800000E+00
  1.1800000E+00
  1.1800000E+00
  1.1800000E+00
  1.1800000E+00
  1.1800000E+00
  1.1800000E+00
  1.1800000E+00
  1.1800000E+00
  1.1800000E+00
  1.1800000E+00
  1.1800000E+00
  1.1800000E+00
  1.1800000E+00
  1.1800000E+00
  1.1800000E+00
  1.1800000E+00
  1.1800000E+00
  1.1800000E+00
  1.1800000E+00
  1.1800000E+00
  1.1800000E+00
  1.1800000E+00
  1.1800000E+00
  1.1800000E+00
  1.1800000E+00
  1.1800000E+00
  1.1800000E+00
  1.1800000E+00
  1.1800000E+00
  1.1800000E+00
  1.1800000E+00
  1.1800000E+00
  1.1800000E+00
  1.1800000E+00
  1.1800000E+00
  1.1800000E+00
  1.1798599E+00
  1.1793839E+00
  1.1794675E+00
  1.1799296E+00
  1.1798237E+00
  1.1799647E+00
  1.1800000E+00
  1.1800000E+00
  1.1800000E+00
  1.1800000E+00
  1.1800000E+00
  1.1800000E+00
  1.1800000E+00
  1.1800000E+00
  1.1800000E+00
  1.1797771E+00
  1.1800000E+00
  1.1800000E+00
  1.1800000E+00
  1.1800000E+00
  1.1800000E+00
  1.1800000E+00
  1.1800000E+00
  1.1800000E+00
  1.1800000E+00
  1.1800000E+00
  1.1800000E+00
  1.1800000E+00
  1.1800000E+00
  1.1800000E+00
  1.1798730E+00
  1.1800000E+00
  1.1800000E+00
  1.1800000E+00
  1.1800000E+00
  1.1800000E+00
  1.1800000E+00
  1.1800000E+00
  1.1800000E+00
  1.1800000E+00
  1.1800000E+00
  1.1800000E+00
  1.1800000E+00
  1.1800000E+00
  1.1800000E+00
  1.1800000E+00
  1.1800000E+00
  1.1800000E+00
  1.1800000E+00
  1.1800000E+00
  1.1798485E+00
  1.1800000E+00
  1.1800000E+00
  1.1800000E+00
  1.1800000E+00
  1.1800000E+00
  1.1800000E+00
  1.1800000E+00
  1.1800000E+00
  1.1800000E+00
  1.1800000E+00
  1.1800000E+00
  1.1800000E+00
  1.1800000E+00
  1.1800000E+00
  1.1800000E+00
  1.1800000E+00
  1.1800000E+00
  1.1793114E+00
  1.1799997E+00
  1.1800000E+00
  1.1800000E+00
  1.1800000E+00
  1.1800000E+00
  1.1800000E+00
  1.1800000E+00
  1.1800000E+00
  1.1800000E+00
  1.1800000E+00
  1.1800000E+00
  1.1800000E+00
  1.1800000E+00
  1.1800000E+00
  1.1800000E+00
  1.1800000E+00
  1.1800000E+00
  1.1800000E+00
  1.1800000E+00
  1.1791229E+00
  1.1800000E+00
  1.1800000E+00
  1.1800000E+00
  1.1800000E+00
  1.1800000E+00
  1.1794024E+00
  1.1800000E+00
  1.1800000E+00
  1.1800000E+00
  1.1800000E+00
  1.1800000E+00
  1.1800000E+00
  1.1800000E+00
  1.1800000E+00
  1.1800000E+00
  1.1800000E+00
  1.1800000E+00
  1.1791880E+00
  1.1799776E+00
  1.1800000E+00
  1.1800000E+00
  1.1800000E+00
  1.1800000E+00
  1.1800000E+00
  1.1800000E+00
  1.1800000E+00
  1.1800000E+00
  1.1797694E+00
  1.1800000E+00
  1.1800000E+00
  1.1800000E+00
  1.1800000E+00
  1.1800000E+00
  1.1800000E+00
  1.1800000E+00
  1.1800000E+00
  1.1800000E+00
  1.1800000E+00
  1.1800000E+00
  1.1800000E+00
  1.1800000E+00
  1.1800000E+00
  1.1793372E+00
  1.1799925E+00
  1.1800000E+00
  1.1800000E+00
  1.1800000E+00
  1.1800000E+00
  1.1800000E+00
  1.1800000E+00
  1.1796803E+00
  1.1800000E+00
  1.1800000E+00
  1.1800000E+00
  1.1800000E+00
  1.1800000E+00
  1.1800000E+00
  1.1800000E+00
  1.1800000E+00
  1.1800000E+00
  1.1800000E+00
  1.1800000E+00
  1.1800000E+00
  1.1800000E+00
  1.1800000E+00
  1.1800000E+00
  1.1800000E+00
  1.1800000E+00
  1.1800000E+00
  1.1800000E+00
  1.1800000E+00
  1.1794763E+00
  1.1800000E+00
  1.1800000E+00
  1.1800000E+00
  1.1800000E+00
  1.1800000E+00
  1.1800000E+00
  1.1800000E+00
  1.1800000E+00
  1.1800000E+00
  1.1800000E+00
  1.1791503E+00
  1.1799873E+00
  1.1800000E+00
  1.1800000E+00
  1.1800000E+00
  1.1800000E+00
  1.1800000E+00
  1.1800000E+00
  1.1800000E+00
  1.1800000E+00
  1.1800000E+00
  1.1800000E+00
  1.1800000E+00
  1.1800000E+00
  1.1800000E+00
  1.1800000E+00
  1.1800000E+00
  1.1795068E+00
  1.1800000E+00
  1.1800000E+00
  1.1800000E+00
  1.1800000E+00
  1.1800000E+00
  1.1800000E+00
  1.1800000E+00
  1.1800000E+00
  1.1800000E+00
  1.1797722E+00
  1.1799990E+00
  1.1800000E+00
  1.1800000E+00
  1.1800000E+00
  1.1800000E+00
  1.1800000E+00
  1.1800000E+00
  1.1800000E+00
  1.1790850E+00
  1.1799965E+00
  1.1800000E+00
  1.1800000E+00
  1.1800000E+00
  1.1800000E+00
  1.1800000E+00
  1.1800000E+00
  1.1800000E+00
  1.1800000E+00
  1.1800000E+00
  1.1800000E+00
  1.1800000E+00
  1.1800000E+00
  1.1800000E+00
  1.1800000E+00
  1.1800000E+00
  1.1800000E+00
  1.1794537E+00
  1.1800000E+00
  1.1800000E+00
  1.1800000E+00
  1.1800000E+00
  1.1800000E+00
  1.1800000E+00
  1.1800000E+00
  1.1800000E+00
  1.1800000E+00
  1.1800000E+00
  1.1791239E+00
  1.1799999E+00
  1.1800000E+00
  1.1800000E+00
  1.1800000E+00
  1.1800000E+00
  1.1800000E+00
  1.1800000E+00
  1.1800000E+00
  1.1800000E+00
  1.1800000E+00
  1.1800000E+00
  1.1800000E+00
  1.1800000E+00
  1.1800000E+00
  1.1800000E+00
  1.1800000E+00
  1.1800000E+00
  1.1800000E+00
  1.1800000E+00
  1.1800000E+00
  1.1800000E+00
  1.1800000E+00
  1.1800000E+00
  1.1800000E+00
  1.1796962E+00
  1.1800000E+00
  1.1800000E+00
  1.1800000E+00
  1.1800000E+00
  1.1800000E+00
  1.1800000E+00
  1.1800000E+00
  1.1800000E+00
  1.1800000E+00
  1.1800000E+00
  1.1800000E+00
  1.1800000E+00
  1.1799730E+00
  1.1800000E+00
  1.1800000E+00
  1.1800000E+00
  1.1800000E+00
  1.1800000E+00
  1.1800000E+00
  1.1800000E+00
  1.1800000E+00
  1.1800000E+00
  1.1800000E+00
  1.1800000E+00
  1.1800000E+00
  1.1800000E+00
  1.1800000E+00
  1.1800000E+00
  1.1800000E+00
  1.1800000E+00
  1.1798918E+00
  1.1800000E+00
  1.1800000E+00
  1.1800000E+00
  1.1800000E+00
  1.1800000E+00
  1.1800000E+00
  1.1800000E+00
  1.1800000E+00
  1.1800000E+00
  1.1800000E+00
  1.1800000E+00
  1.1800000E+00
  1.1800000E+00
  1.1800000E+00
  1.1800000E+00
  1.1800000E+00
  1.1799754E+00
  1.1800000E+00
  1.1800000E+00
  1.1800000E+00
  1.1800000E+00
  1.1800000E+00
  1.1800000E+00
  1.1800000E+00
  1.1800000E+00
  1.1800000E+00
  1.1800000E+00
  1.1800000E+00
  1.1800000E+00
  1.1800000E+00
  1.1800000E+00
  1.1800000E+00
  1.1800000E+00
  1.1800000E+00
  1.1800000E+00
  1.1800000E+00
  1.1800000E+00
  1.1800000E+00
  1.1800000E+00
  1.1800000E+00
  1.1800000E+00
  1.1800000E+00
  1.1800000E+00
  1.1799794E+00
  1.1800000E+00
  1.1800000E+00
  1.1800000E+00
  1.1800000E+00
  1.1800000E+00
  1.1800000E+00
  1.1800000E+00
  1.1800000E+00
  1.1800000E+00
  1.1800000E+00
  1.1800000E+00
  1.1800000E+00
  1.1800000E+00
  1.1800000E+00
  1.1800000E+00
  1.1800000E+00
  1.1800000E+00
  1.1800000E+00
  1.1800000E+00
  1.1800000E+00
  1.1800000E+00
  1.1800000E+00
  1.1800000E+00
  1.1800000E+00
  1.1800000E+00
  1.1800000E+00
  1.1794001E+00
  1.1799059E+00
  1.1800000E+00
  1.1800000E+00
  1.1800000E+00
  1.1800000E+00
  1.1800000E+00
  1.1800000E+00
  1.1800000E+00
  1.1800000E+00
  1.1800000E+00
  1.1800000E+00
  1.1800000E+00
  1.1800000E+00
  1.1800000E+00
  1.1800000E+00
  1.1800000E+00
  1.1800000E+00
  1.1800000E+00
  1.1800000E+00
  1.1800000E+00
  1.1800000E+00
  1.1800000E+00
  1.1800000E+00
  1.1800000E+00
  1.1800000E+00
  1.1800000E+00
  1.1800000E+00
  1.1800000E+00
  1.1800000E+00
  1.1800000E+00
  1.1800000E+00
  1.1800000E+00
  1.1800000E+00
  1.1800000E+00
  1.1800000E+00
  1.1800000E+00
  1.1800000E+00
  1.1800000E+00
  1.1800000E+00
  1.1800000E+00
  1.1800000E+00
  1.1800000E+00
  1.1800000E+00
  1.1800000E+00
  1.1800000E+00
  1.1800000E+00
  1.1800000E+00
  1.1800000E+00
  1.1800000E+00
  1.1800000E+00
  1.1800000E+00
  1.1800000E+00
  1.1800000E+00
  1.1800000E+00
  1.1800000E+00
  1.1800000E+00
  1.1799872E+00
  1.1800000E+00
  1.1800000E+00
  1.1800000E+00
  1.1800000E+00
  1.1800000E+00
  1.1800000E+00
  1.1800000E+00
  1.1800000E+00
  1.1800000E+00
  1.1800000E+00
  1.1800000E+00
  1.1800000E+00
  1.1800000E+00
  1.1800000E+00
  1.1800000E+00
  1.1800000E+00
  1.1800000E+00
  1.1800000E+00
  1.1800000E+00
  1.1800000E+00
  1.1800000E+00
  1.1800000E+00
  1.1800000E+00
  1.1800000E+00
  1.1800000E+00
  1.1800000E+00
  1.1800000E+00
  1.1800000E+00
  1.1800000E+00
  1.1800000E+00
  1.1800000E+00
  1.1800000E+00
  1.1800000E+00
  1.1800000E+00
  1.1800000E+00
  1.1800000E+00
  1.1800000E+00
  1.1800000E+00
  1.1800000E+00
  1.1800000E+00
  1.1800000E+00
  1.1800000E+00
  1.1800000E+00
  1.1800000E+00
  1.1800000E+00
  1.1800000E+00
  1.1800000E+00
  1.1800000E+00
  1.1800000E+00
  1.1800000E+00
  1.1800000E+00
  1.1800000E+00
  1.1800000E+00
  1.1800000E+00
  1.1800000E+00
  1.1800000E+00
  1.1800000E+00
  1.1800000E+00
  1.1800000E+00
  1.1800000E+00
  1.1800000E+00
  1.1800000E+00
  1.1800000E+00
  1.1800000E+00
  1.1800000E+00
  1.1800000E+00
  1.1800000E+00
  1.1800000E+00
  1.1800000E+00
  1.1800000E+00
  1.1800000E+00
  1.1800000E+00
  1.1800000E+00
  1.1800000E+00
  1.1800000E+00
  1.1800000E+00
  1.1800000E+00
  1.1800000E+00
  1.1800000E+00
  1.1800000E+00
  1.1800000E+00
  1.1800000E+00
  1.1800000E+00
  1.1800000E+00
  1.1800000E+00
  1.1800000E+00
  1.1800000E+00
  1.1800000E+00
  1.1800000E+00
  1.1800000E+00
  1.1800000E+00
  1.1800000E+00
  1.1800000E+00
  1.1799168E+00
  1.1800000E+00
  1.1800000E+00
  1.1800000E+00
  1.1800000E+00
  1.1800000E+00
  1.1800000E+00
  1.1800000E+00
  1.1800000E+00
  1.1800000E+00
  1.1800000E+00
  1.1791988E+00
  1.1797987E+00
  1.1800000E+00
  1.1800000E+00
  1.1800000E+00
  1.1800000E+00
  1.1800000E+00
  1.1800000E+00
  1.1800000E+00
  1.1800000E+00
  1.1800000E+00
  1.1800000E+00
  1.1800000E+00
  1.1800000E+00
  1.1800000E+00
  1.1800000E+00
  1.1800000E+00
  1.1800000E+00
  1.1800000E+00
  1.1800000E+00
  1.1800000E+00
  1.1799462E+00
  1.1800000E+00
  1.1800000E+00
  1.1800000E+00
  1.1800000E+00
  1.1800000E+00
  1.1800000E+00
  1.1800000E+00
  1.1800000E+00
  1.1800000E+00
  1.1800000E+00
  1.1800000E+00
  1.1800000E+00
  1.1800000E+00
  1.1800000E+00
  1.1800000E+00
  1.1799624E+00
  1.1800000E+00
  1.1800000E+00
  1.1800000E+00
  1.1800000E+00
  1.1800000E+00
  1.1800000E+00
  1.1800000E+00
  1.1800000E+00
  1.1800000E+00
  1.1800000E+00
  1.1800000E+00
  1.1800000E+00
  1.1800000E+00
  1.1800000E+00
  1.1800000E+00
  1.1800000E+00
  1.1800000E+00
  1.1800000E+00
  1.1800000E+00
  1.1800000E+00
  1.1800000E+00
  1.1800000E+00
  1.1800000E+00
  1.1800000E+00
  1.1800000E+00
  1.1800000E+00
  1.1800000E+00
  1.1799706E+00
  1.1800000E+00
  1.1800000E+00
  1.1800000E+00
  1.1800000E+00
  1.1800000E+00
  1.1800000E+00
  1.1800000E+00
  1.1800000E+00
  1.1800000E+00
  1.1800000E+00
  1.1799716E+00
  1.1800000E+00
  1.1800000E+00
  1.1800000E+00
  1.1800000E+00
  1.1796364E+00
  1.1799131E+00
  1.1800000E+00
  1.1800000E+00
  1.1800000E+00
  1.1800000E+00
  1.1800000E+00
  1.1800000E+00
  1.1800000E+00
  1.1800000E+00
  1.1800000E+00
  1.1800000E+00
  1.1800000E+00
  1.1800000E+00
  1.1800000E+00
  1.1800000E+00
  1.1800000E+00
  1.1800000E+00
  1.1800000E+00
  1.1800000E+00
  1.1800000E+00
  1.1800000E+00
  1.1800000E+00
  1.1800000E+00
  1.1800000E+00
  1.1800000E+00
  1.1800000E+00
  1.1800000E+00
  1.1800000E+00
  1.1800000E+00
  1.1800000E+00
  1.1799554E+00
  1.1800000E+00
  1.1800000E+00
  1.1800000E+00
  1.1800000E+00
  1.1800000E+00
  1.1800000E+00
  1.1800000E+00
  1.1800000E+00
  1.1800000E+00
  1.1800000E+00
  1.1800000E+00
  1.1800000E+00
  1.1799467E+00
  1.1800000E+00
  1.1800000E+00
  1.1800000E+00
  1.1800000E+00
  1.1800000E+00
  1.1800000E+00
  1.1800000E+00
  1.1800000E+00
  1.1800000E+00
  1.1800000E+00
  1.1800000E+00
  1.1800000E+00
  1.1799663E+00
  1.1800000E+00
  1.1800000E+00
  1.1800000E+00
  1.1800000E+00
  1.1800000E+00
  1.1800000E+00
  1.1800000E+00
  1.1800000E+00
  1.1800000E+00
  1.1800000E+00
  1.1800000E+00
  1.1800000E+00
  1.1800000E+00
  1.1800000E+00
  1.1800000E+00
  1.1800000E+00
  1.1798837E+00
  1.1800000E+00
  1.1800000E+00
  1.1800000E+00
  1.1800000E+00
  1.1800000E+00
  1.1800000E+00
  1.1800000E+00
  1.1800000E+00
  1.1800000E+00
  1.1800000E+00
  1.1800000E+00
  1.1800000E+00
  1.1800000E+00
  1.1800000E+00
  1.1800000E+00
  1.1797533E+00
  1.1800000E+00
  1.1800000E+00
  1.1800000E+00
  1.1800000E+00
  1.1799013E+00
  1.1800000E+00
  1.1800000E+00
  1.1800000E+00
  1.1800000E+00
  1.1800000E+00
  1.1800000E+00
  1.1800000E+00
  1.1800000E+00
  1.1800000E+00
  1.1800000E+00
  1.1800000E+00
  1.1800000E+00
  1.1800000E+00
  1.1800000E+00
  1.1800000E+00
  1.1800000E+00
  1.1800000E+00
  1.1800000E+00
  1.1800000E+00
  1.1800000E+00
  1.1800000E+00
  1.1800000E+00
  1.1795482E+00
  1.1800000E+00
  1.1800000E+00
  1.1800000E+00
  1.1800000E+00
  1.1800000E+00
  1.1800000E+00
  1.1800000E+00
  1.1800000E+00
  1.1800000E+00
  1.1800000E+00
  1.1800000E+00
  1.1800000E+00
  1.1800000E+00
  1.1800000E+00
  1.1800000E+00
  1.1800000E+00
  1.1800000E+00
  1.1800000E+00
  1.1800000E+00
  1.1794313E+00
  1.1800000E+00
  1.1800000E+00
  1.1800000E+00
  1.1800000E+00
  1.1800000E+00
  1.1800000E+00
  1.1800000E+00
  1.1800000E+00
  1.1800000E+00
  1.1800000E+00
  1.1800000E+00
  1.1800000E+00
  1.1800000E+00
  1.1800000E+00
  1.1800000E+00
  1.1800000E+00
  1.1800000E+00
  1.1800000E+00
  1.1800000E+00
  1.1800000E+00
  1.1800000E+00
  1.1800000E+00
  1.1800000E+00
  1.1800000E+00
  1.1800000E+00
  1.1800000E+00
  1.1800000E+00
  1.1800000E+00
  1.1800000E+00
  1.1800000E+00
  1.1799744E+00
  1.1800000E+00
  1.1800000E+00
  1.1800000E+00
  1.1800000E+00
  1.1800000E+00
  1.1800000E+00
  1.1800000E+00
  1.1800000E+00
  1.1800000E+00
  1.1799966E+00
  1.1800000E+00
  1.1800000E+00
  1.1800000E+00
  1.1800000E+00
  1.1800000E+00
  1.1800000E+00
  1.1800000E+00
  1.1800000E+00
  1.1800000E+00
  1.1800000E+00
  1.1800000E+00
  1.1800000E+00
  1.1800000E+00
  1.1799856E+00
  1.1800000E+00
  1.1800000E+00
  1.1800000E+00
  1.1800000E+00
  1.1800000E+00
  1.1800000E+00
  1.1800000E+00
  1.1800000E+00
  1.1800000E+00
  1.1800000E+00
  1.1800000E+00
  1.1800000E+00
  1.1800000E+00
  1.1800000E+00
  1.1800000E+00
  1.1800000E+00
  1.1800000E+00
  1.1800000E+00
  1.1800000E+00
  1.1800000E+00
  1.1798943E+00
  1.1800000E+00
  1.1800000E+00
  1.1800000E+00
  1.1800000E+00
  1.1800000E+00
  1.1800000E+00
  1.1800000E+00
  1.1800000E+00
  1.1800000E+00
  1.1800000E+00
  1.1800000E+00
  1.1796877E+00
  1.1800000E+00
  1.1800000E+00
  1.1800000E+00
  1.1800000E+00
  1.1800000E+00
  1.1800000E+00
  1.1800000E+00
  1.1800000E+00
  1.1800000E+00
  1.1800000E+00
  1.1800000E+00
  1.1800000E+00
  1.1800000E+00
  1.1800000E+00
  1.1800000E+00
  1.1800000E+00
  1.1800000E+00
  1.1800000E+00
  1.1800000E+00
  1.1800000E+00
  1.1800000E+00
  1.1800000E+00
  1.1800000E+00
  1.1800000E+00
  1.1800000E+00
  1.1800000E+00
  1.1800000E+00
  1.1800000E+00
  1.1800000E+00
  1.1800000E+00
  1.1800000E+00
  1.1800000E+00
  1.1800000E+00
  1.1800000E+00
  1.1800000E+00
  1.1800000E+00
  1.1800000E+00
  1.1800000E+00
  1.1800000E+00
  1.1800000E+00
  1.1800000E+00
  1.1800000E+00
  1.1800000E+00
  1.1799406E+00
  1.1799990E+00
  1.1800000E+00
  1.1800000E+00
  1.1800000E+00
  1.1800000E+00
  1.1800000E+00
  1.1800000E+00
  1.1800000E+00
  1.1800000E+00
  1.1799341E+00
  1.1800000E+00
  1.1800000E+00
  1.1800000E+00
  1.1800000E+00
  1.1800000E+00
  1.1800000E+00
  1.1800000E+00
  1.1800000E+00
  1.1800000E+00
  1.1800000E+00
  1.1800000E+00
  1.1800000E+00
  1.1800000E+00
  1.1800000E+00
  1.1800000E+00
  1.1800000E+00
  1.1800000E+00
  1.1800000E+00
  1.1800000E+00
  1.1800000E+00
  1.1800000E+00
  1.1800000E+00
  1.1800000E+00
  1.1800000E+00
  1.1800000E+00
  1.1800000E+00
  1.1800000E+00
  1.1800000E+00
  1.1800000E+00
  1.1799987E+00
  1.1800000E+00
  1.1800000E+00
  1.1800000E+00
  1.1800000E+00
  1.1800000E+00
  1.1800000E+00
  1.1800000E+00
  1.1799052E+00
  1.1800000E+00
  1.1800000E+00
  1.1800000E+00
  1.1800000E+00
  1.1800000E+00
  1.1800000E+00
  1.1800000E+00
  1.1799932E+00
  1.1800000E+00
  1.1800000E+00
  1.1800000E+00
  1.1800000E+00
  1.1800000E+00
  1.1800000E+00
  1.1800000E+00
  1.1800000E+00
  1.1800000E+00
  1.1800000E+00
  1.1800000E+00
  1.1800000E+00
  1.1800000E+00
  1.1800000E+00
  1.1800000E+00
  1.1800000E+00
  1.1800000E+00
  1.1800000E+00
  1.1800000E+00
  1.1800000E+00
  1.1800000E+00
  1.1800000E+00
  1.1800000E+00
  1.1800000E+00
  1.1800000E+00
  1.1800000E+00
  1.1800000E+00
  1.1800000E+00
  1.1800000E+00
  1.1800000E+00
  1.1798741E+00
  1.1800000E+00
  1.1800000E+00
  1.1800000E+00
  1.1800000E+00
  1.1800000E+00
  1.1800000E+00
  1.1795670E+00
  1.1800000E+00
  1.1800000E+00
  1.1800000E+00
  1.1800000E+00
  1.1800000E+00
  1.1800000E+00
  1.1800000E+00
  1.1800000E+00
  1.1800000E+00
  1.1800000E+00
  1.1800000E+00
  1.1800000E+00
  1.1800000E+00
  1.1800000E+00
  1.1800000E+00
  1.1800000E+00
  1.1800000E+00
  1.1800000E+00
  1.1800000E+00
  1.1800000E+00
  1.1797673E+00
  1.1800000E+00
  1.1800000E+00
  1.1800000E+00
  1.1800000E+00
  1.1800000E+00
  1.1793772E+00
  1.1800000E+00
  1.1800000E+00
  1.1800000E+00
  1.1800000E+00
  1.1800000E+00
  1.1800000E+00
  1.1800000E+00
  1.1800000E+00
  1.1800000E+00
  1.1800000E+00
  1.1800000E+00
  1.1800000E+00
  1.1800000E+00
  1.1800000E+00
  1.1800000E+00
  1.1800000E+00
  1.1800000E+00
  1.1800000E+00
  1.1800000E+00
  1.1800000E+00
  1.1800000E+00
  1.1800000E+00
  1.1800000E+00
  1.1800000E+00
  1.1800000E+00
  1.1800000E+00
  1.1800000E+00
  1.1800000E+00
  1.1796117E+00
  1.1800000E+00
  1.1800000E+00
  1.1800000E+00
  1.1800000E+00
  1.1790962E+00
  1.1799857E+00
  1.1800000E+00
  1.1800000E+00
  1.1800000E+00
  1.1800000E+00
  1.1800000E+00
  1.1800000E+00
  1.1800000E+00
  1.1800000E+00
  1.1800000E+00
  1.1800000E+00
  1.1800000E+00
  1.1800000E+00
  1.1800000E+00
  1.1800000E+00
  1.1800000E+00
  1.1800000E+00
  1.1800000E+00
  1.1800000E+00
  1.1800000E+00
  1.1800000E+00
  1.1791911E+00
  1.1800000E+00
  1.1800000E+00
  1.1800000E+00
  1.1798994E+00
  1.1800000E+00
  1.1800000E+00
  1.1800000E+00
  1.1800000E+00
  1.1800000E+00
  1.1800000E+00
  1.1800000E+00
  1.1800000E+00
  1.1800000E+00
  1.1800000E+00
  1.1800000E+00
  1.1800000E+00
  1.1800000E+00
  1.1800000E+00
  1.1800000E+00
  1.1800000E+00
  1.1800000E+00
  1.1800000E+00
  1.1800000E+00
  1.1800000E+00
  1.1800000E+00
  1.1800000E+00
  1.1800000E+00
  1.1794364E+00
  1.1800000E+00
  1.1800000E+00
  1.1797455E+00
  1.1800000E+00
  1.1800000E+00
  1.1800000E+00
  1.1800000E+00
  1.1800000E+00
  1.1800000E+00
  1.1800000E+00
  1.1800000E+00
  1.1800000E+00
  1.1800000E+00
  1.1800000E+00
  1.1800000E+00
  1.1800000E+00
  1.1800000E+00
  1.1800000E+00
  1.1800000E+00
  1.1800000E+00
  1.1789630E+00
  1.1799837E+00
  1.1800000E+00
  1.1800000E+00
  1.1800000E+00
  1.1800000E+00
  1.1800000E+00
  1.1800000E+00
  1.1800000E+00
  1.1786129E+00
  1.1790147E+00
  1.1800000E+00
  1.1800000E+00
  1.1800000E+00
  1.1800000E+00
  1.1800000E+00
  1.1800000E+00
  1.1800000E+00
  1.1800000E+00
  1.1800000E+00
  1.1800000E+00
  1.1800000E+00
  1.1800000E+00
  1.1800000E+00
  1.1800000E+00
  1.1800000E+00
  1.1800000E+00
  1.1800000E+00
  1.1800000E+00
  1.1800000E+00
  1.1800000E+00
  1.1800000E+00
  1.1791296E+00
  1.1799773E+00
  1.1800000E+00
  1.1800000E+00
  1.1800000E+00
  1.1800000E+00
  1.1800000E+00
  1.1800000E+00
  1.1800000E+00
  1.1800000E+00
  1.1800000E+00
  1.1800000E+00
  1.1800000E+00
  1.1796682E+00
  1.1800000E+00
  1.1800000E+00
  1.1800000E+00
  1.1800000E+00
  1.1800000E+00
  1.1800000E+00
  1.1800000E+00
  1.1800000E+00
  1.1800000E+00
  1.1800000E+00
  1.1800000E+00
  1.1800000E+00
  1.1800000E+00
  1.1800000E+00
  1.1800000E+00
  1.1800000E+00
  1.1800000E+00
  1.1800000E+00
  1.1800000E+00
  1.1800000E+00
  1.1798815E+00
  1.1799925E+00
  1.1800000E+00
  1.1800000E+00
  1.1800000E+00
  1.1800000E+00
  1.1800000E+00
  1.1800000E+00
  1.1800000E+00
  1.1800000E+00
  1.1800000E+00
  1.1800000E+00
  1.1797421E+00
  1.1799677E+00
  1.1800000E+00
  1.1800000E+00
  1.1800000E+00
  1.1800000E+00
  1.1800000E+00
  1.1800000E+00
  1.1800000E+00
  1.1800000E+00
  1.1800000E+00
  1.1800000E+00
  1.1800000E+00
  1.1800000E+00
  1.1800000E+00
  1.1800000E+00
  1.1800000E+00
  1.1800000E+00
  1.1800000E+00
  1.1798143E+00
  1.1799312E+00
  1.1800000E+00
  1.1800000E+00
  1.1800000E+00
  1.1800000E+00
  1.1800000E+00
  1.1800000E+00
  1.1800000E+00
  1.1800000E+00
  1.1800000E+00
  1.1794659E+00
  1.1800000E+00
  1.1800000E+00
  1.1800000E+00
  1.1800000E+00
  1.1800000E+00
  1.1800000E+00
  1.1800000E+00
  1.1793483E+00
  1.1797171E+00
  1.1799266E+00
  1.1800000E+00
  1.1800000E+00
  1.1800000E+00
  1.1800000E+00
  1.1800000E+00
  1.1800000E+00
  1.1800000E+00
  1.1800000E+00
  1.1800000E+00
  1.1799703E+00
  1.1799196E+00
  1.1797837E+00
  1.1799576E+00
  1.1798654E+00
  1.1795109E+00
  1.1789297E+00
  1.1796485E+00
  1.1794440E+00
 -1.9743647E-02
 -1.8687988E-02
 -2.0996497E-02
 -2.2664017E-02
 -2.3198718E-02
 -2.3066402E-02
 -2.2491413E-02
 -2.1865295E-02
 -2.1197717E-02
 -2.0485738E-02
 -2.0046750E-02
 -2.0292412E-02
 -2.1459246E-02
 -2.3210268E-02
 -2.5187633E-02
 -2.7487372E-02
 -2.4764014E-02
 -2.6713280E-02
 -2.6171060E-02
 -2.4620354E-02
 -2.3301922E-02
 -2.2107397E-02
 -2.0667901E-02
 -1.9789998E-02
  9.8575226E-01
  9.7634068E-01
  9.6722249E-01
  9.5747687E-01
  9.4755152E-01
  9.3884772E-01
  9.3151497E-01
  9.2362163E-01
  9.1470162E-01
  9.0522770E-01
  8.9544622E-01
  8.8546529E-01
  8.7528925E-01
  8.6476665E-01
  8.5300628E-01
  8.4137713E-01
  8.3055830E-01
  8.1974054E-01
  8.0869394E-01
  7.9793436E-01
  7.8764949E-01
  7.7688690E-01
  7.6735597E-01
  7.5949743E-01
  7.5047115E-01
  7.4087459E-01
  7.3097730E-01
  7.2087778E-01
  7.1059866E-01
  7.0010964E-01
  6.8932067E-01
  6.7806925E-01
  6.6652567E-01
  6.5500925E-01
  6.4371955E-01
  6.3246773E-01
  6.2047759E-01
  6.0825495E-01