 VARIABLES = "X" "Y" "Z" "CURVATURE RADIUS"
 ZONE T="pass_36"
N=33151 E=66298
 ZONETYPE=FETriangle
 DATAPACKING=BLOCK
 VARLOCATION = ([1-4]=NODAL)
 
 -7.8686089E-02
 -7.8190592E-02
 -7.8551428E-02
 -7.8614237E-02
 -7.8557658E-02
 -7.8413915E-02
 -7.8169676E-02
 -7.7885876E-02
 -7.7775567E-02
 -7.7795067E-02
 -7.8002508E-02
 -7.8314050E-02
 -7.8603541E-02
 -7.8586128E-02
 -7.9066420E-02
 -7.8848801E-02
 -7.8463701E-02
 -7.7956400E-02
 -7.7305964E-02
 -7.6480203E-02
 -7.6853791E-02
 -7.8016570E-02
 -7.7990035E-02
 -7.8272617E-02
 -7.8526018E-02
 -7.8634135E-02
 -7.9261776E-02
 -7.8551285E-02
 -7.8527324E-02
 -7.8455814E-02
 -7.8447685E-02
 -7.8378664E-02
 -7.8163885E-02
 -7.7793258E-02
 -7.7736763E-02
 -7.8051416E-02
 -7.8241229E-02
 -7.8292912E-02
 -7.8245191E-02
 -7.8468445E-02
 -7.8777035E-02
 -7.9006727E-02
 -7.8141696E-02
 -7.8506505E-02
 -7.7589707E-02
 -7.7822794E-02
 -7.6562212E-02
 -7.7037764E-02
 -7.7820365E-02
 -7.7104146E-02
 -7.7751029E-02
 -7.8238264E-02
 -7.8816319E-02
 -7.8514656E-02
 -7.7993817E-02
 -7.8267387E-02
 -7.8270402E-02
 -7.8149431E-02
 -7.7798409E-02
 -7.7453554E-02
 -7.7317717E-02
 -7.7017868E-02
 -7.8158238E-02
 -7.7918600E-02
 -7.7746503E-02
 -8.0000000E-02
 -8.0000000E-02
 -7.9764603E-02
 -8.0000000E-02
 -7.9680374E-02
 -7.9940364E-02
 -7.9891027E-02
 -7.9925913E-02
 -7.9925409E-02
 -8.0000000E-02
 -7.9763485E-02
 -7.9619619E-02
 -7.9448901E-02
 -7.9827753E-02
 -7.9542592E-02
 -7.9108557E-02
 -7.9999994E-02
 -7.9897828E-02
 -8.0000000E-02
 -7.9863830E-02
 -7.9978552E-02
 -8.0000000E-02
 -7.9972177E-02
 -7.9697697E-02
 -8.0000000E-02
 -8.0000000E-02
 -8.0000000E-02
 -8.0000000E-02
 -8.0000000E-02
 -8.0000000E-02
 -8.0000000E-02
 -7.9938435E-02
 -8.0000000E-02
 -8.0000000E-02
 -8.0000000E-02
 -8.0000000E-02
 -7.9728899E-02
 -8.0000000E-02
 -8.0000000E-02
 -8.0000000E-02
 -8.0000000E-02
 -7.9704699E-02
 -7.9797455E-02
 -7.9982452E-02
 -8.0000000E-02
 -8.0000000E-02
 -8.0000000E-02
 -7.9808604E-02
 -8.0000000E-02
 -8.0000000E-02
 -8.0000000E-02
 -8.0000000E-02
 -8.0000000E-02
 -8.0000000E-02
 -8.0000000E-02
 -8.0000000E-02
 -8.0000000E-02
 -7.9852535E-02
 -8.0000000E-02
 -8.0000000E-02
 -8.0000000E-02
 -8.0000000E-02
 -8.0000000E-02
 -7.9866421E-02
 -8.0000000E-02
 -8.0000000E-02
 -8.0000000E-02
 -8.0000000E-02
 -8.0000000E-02
 -8.0000000E-02
 -8.0000000E-02
 -8.0000000E-02
 -8.0000000E-02
 -7.9857124E-02
 -8.0000000E-02
 -8.0000000E-02
 -8.0000000E-02
 -8.0000000E-02
 -8.0000000E-02
 -8.0000000E-02
 -8.0000000E-02
 -8.0000000E-02
 -7.9853193E-02
 -8.0000000E-02
 -8.0000000E-02
 -8.0000000E-02
 -8.0000000E-02
 -8.0000000E-02
 -8.0000000E-02
 -8.0000000E-02
 -8.0000000E-02
 -8.0000000E-02
 -8.0000000E-02
 -7.9882767E-02
 -8.0000000E-02
 -8.0000000E-02
 -8.0000000E-02
 -8.0000000E-02
 -8.0000000E-02
 -8.0000000E-02
 -8.0000000E-02
 -7.9918992E-02
 -8.0000000E-02
 -8.0000000E-02
 -8.0000000E-02
 -8.0000000E-02
 -8.0000000E-02
 -8.0000000E-02
 -8.0000000E-02
 -8.0000000E-02
 -8.0000000E-02
 -8.0000000E-02
 -8.0000000E-02
 -8.0000000E-02
 -8.0000000E-02
 -7.9934953E-02
 -8.0000000E-02
 -8.0000000E-02
 -8.0000000E-02
 -7.9846562E-02
 -8.0000000E-02
 -8.0000000E-02
 -8.0000000E-02
 -8.0000000E-02
 -8.0000000E-02
 -8.0000000E-02
 -8.0000000E-02
 -8.0000000E-02
 -8.0000000E-02
 -8.0000000E-02
 -8.0000000E-02
 -8.0000000E-02
 -8.0000000E-02
 -8.0000000E-02
 -7.9916583E-02
 -8.0000000E-02
 -8.0000000E-02
 -8.0000000E-02
 -8.0000000E-02
 -8.0000000E-02
 -8.0000000E-02
 -8.0000000E-02
 -8.0000000E-02
 -8.0000000E-02
 -7.9999422E-02
 -8.0000000E-02
 -8.0000000E-02
 -8.0000000E-02
 -8.0000000E-02
 -8.0000000E-02
 -8.0000000E-02
 -8.0000000E-02
 -8.0000000E-02
 -8.0000000E-02
 -8.0000000E-02
 -8.0000000E-02
 -7.9995353E-02
 -8.0000000E-02
 -8.0000000E-02
 -8.0000000E-02
 -8.0000000E-02
 -8.0000000E-02
 -7.9985658E-02
 -8.0000000E-02
 -7.9953328E-02
 -8.0000000E-02
 -8.0000000E-02
 -8.0000000E-02
 -8.0000000E-02
 -8.0000000E-02
 -8.0000000E-02
 -8.0000000E-02
 -8.0000000E-02
 -8.0000000E-02
 -8.0000000E-02
 -8.0000000E-02
 -8.0000000E-02
 -7.9795228E-02
 -8.0000000E-02
 -8.0000000E-02
 -8.0000000E-02
 -8.0000000E-02
 -8.0000000E-02
 -8.0000000E-02
 -7.9411737E-02
 -8.0000000E-02
 -8.0000000E-02
 -8.0000000E-02
 -8.0000000E-02
 -8.0000000E-02
 -8.0000000E-02
 -8.0000000E-02
 -8.0000000E-02
 -8.0000000E-02
 -8.0000000E-02
 -8.0000000E-02
 -7.9951999E-02
 -7.8639484E-02
 -8.0000000E-02
 -8.0000000E-02
 -8.0000000E-02
 -8.0000000E-02
 -8.0000000E-02
 -8.0000000E-02
 -7.9388813E-02
 -8.0000000E-02
 -7.9341038E-02
 -8.0000000E-02
 -8.0000000E-02
 -8.0000000E-02
 -8.0000000E-02
 -8.0000000E-02
 -8.0000000E-02
 -8.0000000E-02
 -8.0000000E-02
 -8.0000000E-02
 -8.0000000E-02
 -8.0000000E-02
 -8.0000000E-02
 -7.9720876E-02
 -7.9714330E-02
 -8.0000000E-02
 -8.0000000E-02
 -8.0000000E-02
 -8.0000000E-02
 -8.0000000E-02
 -7.9862719E-02
 -8.0000000E-02
 -8.0000000E-02
 -8.0000000E-02
 -8.0000000E-02
 -8.0000000E-02
 -8.0000000E-02
 -8.0000000E-02
 -8.0000000E-02
 -8.0000000E-02
 -8.0000000E-02
 -8.0000000E-02
 -8.0000000E-02
 -8.0000000E-02
 -8.0000000E-02
 -8.0000000E-02
 -8.0000000E-02
 -8.0000000E-02
 -7.9933914E-02
 -8.0000000E-02
 -8.0000000E-02
 -8.0000000E-02
 -8.0000000E-02
 -7.9567633E-02
 -8.0000000E-02
 -8.0000000E-02
 -8.0000000E-02
 -8.0000000E-02
 -8.0000000E-02
 -8.0000000E-02
 -8.0000000E-02
 -8.0000000E-02
 -8.0000000E-02
 -8.0000000E-02
 -8.0000000E-02
 -7.9896218E-02
 -7.9952477E-02
 -8.0000000E-02
 -8.0000000E-02
 -8.0000000E-02
 -8.0000000E-02
 -8.0000000E-02
 -8.0000000E-02
 -8.0000000E-02
 -8.0000000E-02
 -8.0000000E-02
 -8.0000000E-02
 -7.9883503E-02
 -8.0000000E-02
 -8.0000000E-02
 -8.0000000E-02
 -8.0000000E-02
 -8.0000000E-02
 -8.0000000E-02
 -8.0000000E-02
 -8.0000000E-02
 -8.0000000E-02
 -8.0000000E-02
 -8.0000000E-02
 -8.0000000E-02
 -8.0000000E-02
 -7.9947572E-02
 -8.0000000E-02
 -8.0000000E-02
 -8.0000000E-02
 -8.0000000E-02
 -8.0000000E-02
 -7.9969749E-02
 -8.0000000E-02
 -7.9693747E-02
 -8.0000000E-02
 -8.0000000E-02
 -8.0000000E-02
 -8.0000000E-02
 -8.0000000E-02
 -8.0000000E-02
 -8.0000000E-02
 -8.0000000E-02
 -8.0000000E-02
 -8.0000000E-02
 -8.0000000E-02
 -8.0000000E-02
 -7.9967055E-02
 -8.0000000E-02
 -8.0000000E-02
 -8.0000000E-02
 -8.0000000E-02
 -8.0000000E-02
 -7.9943937E-02
 -8.0000000E-02
 -8.0000000E-02
 -8.0000000E-02
 -8.0000000E-02
 -8.0000000E-02
 -8.0000000E-02
 -8.0000000E-02
 -8.0000000E-02
 -8.0000000E-02
 -8.0000000E-02
 -8.0000000E-02
 -7.9891870E-02
 -8.0000000E-02
 -8.0000000E-02
 -8.0000000E-02
 -7.9803944E-02
  1.1791397E+00
  1.1794343E+00
  1.1793920E+00
  1.1792516E+00
  1.1790465E+00
  1.1788596E+00
  1.1786554E+00
  1.1781442E+00
  1.1787411E+00
  1.1781673E+00
  1.1774421E+00
  1.1782238E+00
  1.1777939E+00
  1.1771680E+00
  1.1780344E+00
  1.1777859E+00
  1.1771859E+00
  1.1777586E+00
  1.1769104E+00
  1.1774523E+00
  1.1767029E+00
  1.1781847E+00
  1.1772840E+00
  1.1776808E+00
  1.1781249E+00
  1.1787366E+00
  1.1792670E+00
  1.1783686E+00
  1.1788078E+00
  1.1782637E+00
  1.1785540E+00
  1.1785462E+00
  1.1784248E+00
  1.1780884E+00
  1.1773689E+00
  1.1775542E+00
  1.1775756E+00
  1.1776943E+00
  1.1779849E+00
  1.1782364E+00
  1.1783351E+00
  1.1782043E+00
  1.1779675E+00
  1.1775937E+00
  1.1770508E+00
  1.1762466E+00
  1.1765767E+00
  1.1772978E+00
  1.1775129E+00
  1.1786311E+00
  1.1783543E+00
  1.1788457E+00
  1.1787555E+00
  1.1792795E+00
  1.1791471E+00
  1.1789733E+00
  1.1788310E+00
  1.1787396E+00
  1.1785689E+00
  1.1783775E+00
  1.1780239E+00
  1.1777059E+00
  1.1775852E+00
  1.1773882E+00
  1.1773199E+00
  1.1770499E+00
  1.1767573E+00
  1.1776743E+00
  1.1774152E+00
  1.1772403E+00
  1.1766475E+00
  1.1758744E+00
  1.1757222E+00
  1.1766747E+00
  1.1770687E+00
  1.1782541E+00
  1.1777638E+00
  1.1777667E+00
  1.1793644E+00
  1.1792324E+00
  1.1792688E+00
  1.1792704E+00
  1.1791465E+00
  1.1790651E+00
  1.1790181E+00
  1.1788769E+00
  1.1785648E+00
  1.1783282E+00
  1.1782508E+00
  1.1782282E+00
  1.1782060E+00
  1.1781333E+00
  1.1779316E+00
  1.1773577E+00
  1.1778177E+00
  1.1778658E+00
  1.1776566E+00
  1.1772134E+00
  1.1764358E+00
  1.1775306E+00
  1.1784878E+00
  1.1788709E+00
  1.1787762E+00
  1.1784921E+00
  1.1793075E+00
  1.1787101E+00
  1.1781869E+00
  1.1784048E+00
  1.1783587E+00
  1.1782264E+00
  1.1786022E+00
  1.1776630E+00
  1.1774878E+00
  1.1769782E+00
  1.1773010E+00
  1.1774113E+00
  1.1774589E+00
  1.1776089E+00
  1.1775541E+00
  1.1775991E+00
  1.1774133E+00
  1.1772692E+00
  1.1771585E+00
  1.1769176E+00
  1.1764385E+00
  1.1774502E+00
  1.1783098E+00
  1.1787348E+00
  1.1787796E+00
  1.1784999E+00
  1.1800000E+00
  1.1800000E+00
  1.1800000E+00
  1.1800000E+00
  1.1800000E+00
  1.1800000E+00
  1.1800000E+00
  1.1800000E+00
  1.1800000E+00
  1.1800000E+00
  1.1800000E+00
  1.1800000E+00
  1.1800000E+00
  1.1800000E+00
  1.1800000E+00
  1.1800000E+00
  1.1800000E+00
  1.1800000E+00
  1.1800000E+00
  1.1800000E+00
  1.1800000E+00
  1.1800000E+00
  1.1800000E+00
  1.1800000E+00
  1.1800000E+00
  1.1800000E+00
  1.1800000E+00
  1.1800000E+00
  1.1800000E+00
  1.1800000E+00
  1.1800000E+00
  1.1800000E+00
  1.1800000E+00
  1.1800000E+00
  1.1800000E+00
  1.1800000E+00
  1.1800000E+00
  1.1800000E+00
  1.1797916E+00
  1.1792587E+00
  1.1793515E+00
  1.1798763E+00
  1.1797453E+00
  1.1799260E+00
  1.1800000E+00
  1.1800000E+00
  1.1800000E+00
  1.1800000E+00
  1.1800000E+00
  1.1800000E+00
  1.1800000E+00
  1.1800000E+00
  1.1800000E+00
  1.1796981E+00
  1.1800000E+00
  1.1800000E+00
  1.1800000E+00
  1.1800000E+00
  1.1800000E+00
  1.1800000E+00
  1.1800000E+00
  1.1800000E+00
  1.1800000E+00
  1.1800000E+00
  1.1800000E+00
  1.1800000E+00
  1.1800000E+00
  1.1800000E+00
  1.1798130E+00
  1.1800000E+00
  1.1800000E+00
  1.1800000E+00
  1.1800000E+00
  1.1800000E+00
  1.1800000E+00
  1.1800000E+00
  1.1800000E+00
  1.1800000E+00
  1.1800000E+00
  1.1800000E+00
  1.1800000E+00
  1.1800000E+00
  1.1800000E+00
  1.1800000E+00
  1.1800000E+00
  1.1800000E+00
  1.1800000E+00
  1.1800000E+00
  1.1797846E+00
  1.1800000E+00
  1.1800000E+00
  1.1800000E+00
  1.1800000E+00
  1.1800000E+00
  1.1800000E+00
  1.1800000E+00
  1.1800000E+00
  1.1800000E+00
  1.1800000E+00
  1.1800000E+00
  1.1800000E+00
  1.1800000E+00
  1.1800000E+00
  1.1800000E+00
  1.1800000E+00
  1.1800000E+00
  1.1791973E+00
  1.1799900E+00
  1.1800000E+00
  1.1800000E+00
  1.1800000E+00
  1.1800000E+00
  1.1800000E+00
  1.1800000E+00
  1.1800000E+00
  1.1800000E+00
  1.1800000E+00
  1.1800000E+00
  1.1800000E+00
  1.1800000E+00
  1.1800000E+00
  1.1800000E+00
  1.1800000E+00
  1.1800000E+00
  1.1800000E+00
  1.1800000E+00
  1.1790084E+00
  1.1800000E+00
  1.1800000E+00
  1.1800000E+00
  1.1800000E+00
  1.1800000E+00
  1.1792979E+00
  1.1800000E+00
  1.1800000E+00
  1.1800000E+00
  1.1800000E+00
  1.1800000E+00
  1.1800000E+00
  1.1800000E+00
  1.1800000E+00
  1.1800000E+00
  1.1800000E+00
  1.1800000E+00
  1.1790626E+00
  1.1799437E+00
  1.1800000E+00
  1.1800000E+00
  1.1800000E+00
  1.1800000E+00
  1.1800000E+00
  1.1800000E+00
  1.1800000E+00
  1.1800000E+00
  1.1796838E+00
  1.1800000E+00
  1.1800000E+00
  1.1800000E+00
  1.1800000E+00
  1.1800000E+00
  1.1800000E+00
  1.1800000E+00
  1.1800000E+00
  1.1800000E+00
  1.1800000E+00
  1.1800000E+00
  1.1800000E+00
  1.1800000E+00
  1.1800000E+00
  1.1792142E+00
  1.1799701E+00
  1.1800000E+00
  1.1800000E+00
  1.1800000E+00
  1.1800000E+00
  1.1800000E+00
  1.1800000E+00
  1.1795868E+00
  1.1800000E+00
  1.1800000E+00
  1.1800000E+00
  1.1800000E+00
  1.1800000E+00
  1.1800000E+00
  1.1800000E+00
  1.1800000E+00
  1.1800000E+00
  1.1800000E+00
  1.1800000E+00
  1.1800000E+00
  1.1800000E+00
  1.1800000E+00
  1.1800000E+00
  1.1800000E+00
  1.1800000E+00
  1.1800000E+00
  1.1800000E+00
  1.1800000E+00
  1.1793680E+00
  1.1800000E+00
  1.1800000E+00
  1.1800000E+00
  1.1800000E+00
  1.1800000E+00
  1.1800000E+00
  1.1800000E+00
  1.1800000E+00
  1.1800000E+00
  1.1800000E+00
  1.1790236E+00
  1.1799625E+00
  1.1800000E+00
  1.1800000E+00
  1.1800000E+00
  1.1800000E+00
  1.1800000E+00
  1.1800000E+00
  1.1800000E+00
  1.1800000E+00
  1.1800000E+00
  1.1800000E+00
  1.1800000E+00
  1.1800000E+00
  1.1800000E+00
  1.1800000E+00
  1.1800000E+00
  1.1794000E+00
  1.1800000E+00
  1.1800000E+00
  1.1800000E+00
  1.1800000E+00
  1.1800000E+00
  1.1800000E+00
  1.1800000E+00
  1.1800000E+00
  1.1800000E+00
  1.1796963E+00
  1.1799882E+00
  1.1800000E+00
  1.1800000E+00
  1.1800000E+00
  1.1800000E+00
  1.1800000E+00
  1.1800000E+00
  1.1800000E+00
  1.1789533E+00
  1.1799807E+00
  1.1800000E+00
  1.1800000E+00
  1.1800000E+00
  1.1800000E+00
  1.1800000E+00
  1.1800000E+00
  1.1800000E+00
  1.1800000E+00
  1.1800000E+00
  1.1800000E+00
  1.1800000E+00
  1.1800000E+00
  1.1800000E+00
  1.1800000E+00
  1.1800000E+00
  1.1800000E+00
  1.1793372E+00
  1.1800000E+00
  1.1800000E+00
  1.1800000E+00
  1.1800000E+00
  1.1800000E+00
  1.1800000E+00
  1.1800000E+00
  1.1800000E+00
  1.1800000E+00
  1.1800000E+00
  1.1789823E+00
  1.1799911E+00
  1.1800000E+00
  1.1800000E+00
  1.1800000E+00
  1.1800000E+00
  1.1800000E+00
  1.1800000E+00
  1.1800000E+00
  1.1800000E+00
  1.1800000E+00
  1.1800000E+00
  1.1800000E+00
  1.1800000E+00
  1.1800000E+00
  1.1800000E+00
  1.1800000E+00
  1.1800000E+00
  1.1800000E+00
  1.1800000E+00
  1.1800000E+00
  1.1800000E+00
  1.1800000E+00
  1.1800000E+00
  1.1800000E+00
  1.1796008E+00
  1.1800000E+00
  1.1800000E+00
  1.1800000E+00
  1.1800000E+00
  1.1800000E+00
  1.1800000E+00
  1.1800000E+00
  1.1800000E+00
  1.1800000E+00
  1.1800000E+00
  1.1800000E+00
  1.1800000E+00
  1.1799364E+00
  1.1800000E+00
  1.1800000E+00
  1.1800000E+00
  1.1800000E+00
  1.1800000E+00
  1.1800000E+00
  1.1800000E+00
  1.1800000E+00
  1.1800000E+00
  1.1800000E+00
  1.1800000E+00
  1.1800000E+00
  1.1800000E+00
  1.1800000E+00
  1.1800000E+00
  1.1800000E+00
  1.1800000E+00
  1.1798251E+00
  1.1800000E+00
  1.1800000E+00
  1.1800000E+00
  1.1800000E+00
  1.1800000E+00
  1.1800000E+00
  1.1800000E+00
  1.1800000E+00
  1.1800000E+00
  1.1800000E+00
  1.1800000E+00
  1.1800000E+00
  1.1800000E+00
  1.1800000E+00
  1.1800000E+00
  1.1800000E+00
  1.1799385E+00
  1.1800000E+00
  1.1800000E+00
  1.1800000E+00
  1.1800000E+00
  1.1800000E+00
  1.1800000E+00
  1.1800000E+00
  1.1800000E+00
  1.1800000E+00
  1.1800000E+00
  1.1800000E+00
  1.1800000E+00
  1.1800000E+00
  1.1800000E+00
  1.1800000E+00
  1.1800000E+00
  1.1800000E+00
  1.1800000E+00
  1.1800000E+00
  1.1800000E+00
  1.1800000E+00
  1.1800000E+00
  1.1800000E+00
  1.1800000E+00
  1.1800000E+00
  1.1800000E+00
  1.1799457E+00
  1.1800000E+00
  1.1800000E+00
  1.1800000E+00
  1.1800000E+00
  1.1800000E+00
  1.1800000E+00
  1.1800000E+00
  1.1800000E+00
  1.1799990E+00
  1.1800000E+00
  1.1800000E+00
  1.1800000E+00
  1.1800000E+00
  1.1800000E+00
  1.1800000E+00
  1.1800000E+00
  1.1800000E+00
  1.1800000E+00
  1.1800000E+00
  1.1800000E+00
  1.1800000E+00
  1.1800000E+00
  1.1800000E+00
  1.1800000E+00
  1.1800000E+00
  1.1800000E+00
  1.1792925E+00
  1.1798529E+00
  1.1800000E+00
  1.1800000E+00
  1.1800000E+00
  1.1800000E+00
  1.1800000E+00
  1.1800000E+00
  1.1800000E+00
  1.1800000E+00
  1.1800000E+00
  1.1800000E+00
  1.1800000E+00
  1.1800000E+00
  1.1800000E+00
  1.1800000E+00
  1.1800000E+00
  1.1800000E+00
  1.1800000E+00
  1.1800000E+00
  1.1800000E+00
  1.1800000E+00
  1.1800000E+00
  1.1800000E+00
  1.1800000E+00
  1.1800000E+00
  1.1800000E+00
  1.1800000E+00
  1.1800000E+00
  1.1800000E+00
  1.1800000E+00
  1.1800000E+00
  1.1800000E+00
  1.1800000E+00
  1.1800000E+00
  1.1800000E+00
  1.1800000E+00
  1.1800000E+00
  1.1800000E+00
  1.1800000E+00
  1.1800000E+00
  1.1800000E+00
  1.1800000E+00
  1.1800000E+00
  1.1800000E+00
  1.1800000E+00
  1.1800000E+00
  1.1800000E+00
  1.1800000E+00
  1.1800000E+00
  1.1800000E+00
  1.1800000E+00
  1.1800000E+00
  1.1800000E+00
  1.1800000E+00
  1.1800000E+00
  1.1800000E+00
  1.1799621E+00
  1.1800000E+00
  1.1800000E+00
  1.1800000E+00
  1.1800000E+00
  1.1800000E+00
  1.1800000E+00
  1.1800000E+00
  1.1800000E+00
  1.1800000E+00
  1.1800000E+00
  1.1800000E+00
  1.1800000E+00
  1.1800000E+00
  1.1800000E+00
  1.1800000E+00
  1.1800000E+00
  1.1800000E+00
  1.1799947E+00
  1.1800000E+00
  1.1800000E+00
  1.1800000E+00
  1.1800000E+00
  1.1800000E+00
  1.1800000E+00
  1.1800000E+00
  1.1800000E+00
  1.1800000E+00
  1.1800000E+00
  1.1800000E+00
  1.1800000E+00
  1.1800000E+00
  1.1800000E+00
  1.1800000E+00
  1.1800000E+00
  1.1800000E+00
  1.1800000E+00
  1.1800000E+00
  1.1800000E+00
  1.1800000E+00
  1.1800000E+00
  1.1800000E+00
  1.1800000E+00
  1.1800000E+00
  1.1800000E+00
  1.1800000E+00
  1.1800000E+00
  1.1800000E+00
  1.1800000E+00
  1.1800000E+00
  1.1800000E+00
  1.1800000E+00
  1.1800000E+00
  1.1800000E+00
  1.1800000E+00
  1.1800000E+00
  1.1800000E+00
  1.1800000E+00
  1.1800000E+00
  1.1800000E+00
  1.1800000E+00
  1.1800000E+00
  1.1800000E+00
  1.1800000E+00
  1.1800000E+00
  1.1800000E+00
  1.1800000E+00
  1.1800000E+00
  1.1800000E+00
  1.1800000E+00
  1.1800000E+00
  1.1800000E+00
  1.1800000E+00
  1.1800000E+00
  1.1800000E+00
  1.1800000E+00
  1.1800000E+00
  1.1800000E+00
  1.1800000E+00
  1.1800000E+00
  1.1800000E+00
  1.1800000E+00
  1.1800000E+00
  1.1800000E+00
  1.1800000E+00
  1.1800000E+00
  1.1800000E+00
  1.1800000E+00
  1.1800000E+00
  1.1800000E+00
  1.1800000E+00
  1.1800000E+00
  1.1800000E+00
  1.1800000E+00
  1.1798623E+00
  1.1800000E+00
  1.1800000E+00
  1.1800000E+00
  1.1800000E+00
  1.1800000E+00
  1.1800000E+00
  1.1800000E+00
  1.1800000E+00
  1.1800000E+00
  1.1800000E+00
  1.1790817E+00
  1.1797276E+00
  1.1800000E+00
  1.1800000E+00
  1.1800000E+00
  1.1800000E+00
  1.1800000E+00
  1.1800000E+00
  1.1800000E+00
  1.1800000E+00
  1.1800000E+00
  1.1800000E+00
  1.1800000E+00
  1.1800000E+00
  1.1800000E+00
  1.1800000E+00
  1.1800000E+00
  1.1800000E+00
  1.1800000E+00
  1.1800000E+00
  1.1800000E+00
  1.1799024E+00
  1.1800000E+00
  1.1800000E+00
  1.1800000E+00
  1.1800000E+00
  1.1800000E+00
  1.1800000E+00
  1.1800000E+00
  1.1800000E+00
  1.1800000E+00
  1.1800000E+00
  1.1800000E+00
  1.1800000E+00
  1.1800000E+00
  1.1800000E+00
  1.1800000E+00
  1.1799266E+00
  1.1800000E+00
  1.1800000E+00
  1.1800000E+00
  1.1800000E+00
  1.1800000E+00
  1.1800000E+00
  1.1800000E+00
  1.1800000E+00
  1.1800000E+00
  1.1800000E+00
  1.1800000E+00
  1.1800000E+00
  1.1800000E+00
  1.1800000E+00
  1.1800000E+00
  1.1800000E+00
  1.1800000E+00
  1.1800000E+00
  1.1800000E+00
  1.1800000E+00
  1.1800000E+00
  1.1800000E+00
  1.1800000E+00
  1.1800000E+00
  1.1800000E+00
  1.1800000E+00
  1.1800000E+00
  1.1799405E+00
  1.1800000E+00
  1.1800000E+00
  1.1800000E+00
  1.1800000E+00
  1.1800000E+00
  1.1800000E+00
  1.1800000E+00
  1.1800000E+00
  1.1800000E+00
  1.1800000E+00
  1.1799444E+00
  1.1800000E+00
  1.1800000E+00
  1.1800000E+00
  1.1800000E+00
  1.1795516E+00
  1.1798654E+00
  1.1799951E+00
  1.1800000E+00
  1.1800000E+00
  1.1800000E+00
  1.1800000E+00
  1.1800000E+00
  1.1800000E+00
  1.1800000E+00
  1.1800000E+00
  1.1800000E+00
  1.1800000E+00
  1.1800000E+00
  1.1800000E+00
  1.1800000E+00
  1.1800000E+00
  1.1800000E+00
  1.1800000E+00
  1.1800000E+00
  1.1800000E+00
  1.1800000E+00
  1.1800000E+00
  1.1800000E+00
  1.1800000E+00
  1.1800000E+00
  1.1800000E+00
  1.1800000E+00
  1.1800000E+00
  1.1800000E+00
  1.1800000E+00
  1.1799254E+00
  1.1800000E+00
  1.1800000E+00
  1.1800000E+00
  1.1800000E+00
  1.1800000E+00
  1.1800000E+00
  1.1800000E+00
  1.1800000E+00
  1.1800000E+00
  1.1800000E+00
  1.1800000E+00
  1.1800000E+00
  1.1799149E+00
  1.1800000E+00
  1.1800000E+00
  1.1800000E+00
  1.1800000E+00
  1.1800000E+00
  1.1800000E+00
  1.1800000E+00
  1.1800000E+00
  1.1800000E+00
  1.1800000E+00
  1.1800000E+00
  1.1800000E+00
  1.1799341E+00
  1.1800000E+00
  1.1800000E+00
  1.1800000E+00
  1.1800000E+00
  1.1800000E+00
  1.1800000E+00
  1.1800000E+00
  1.1800000E+00
  1.1800000E+00
  1.1800000E+00
  1.1800000E+00
  1.1800000E+00
  1.1800000E+00
  1.1800000E+00
  1.1800000E+00
  1.1800000E+00
  1.1798358E+00
  1.1800000E+00
  1.1800000E+00
  1.1800000E+00
  1.1800000E+00
  1.1800000E+00
  1.1800000E+00
  1.1800000E+00
  1.1800000E+00
  1.1800000E+00
  1.1800000E+00
  1.1800000E+00
  1.1800000E+00
  1.1800000E+00
  1.1800000E+00
  1.1800000E+00
  1.1796807E+00
  1.1800000E+00
  1.1800000E+00
  1.1800000E+00
  1.1800000E+00
  1.1798514E+00
  1.1800000E+00
  1.1800000E+00
  1.1800000E+00
  1.1800000E+00
  1.1800000E+00
  1.1799950E+00
  1.1800000E+00
  1.1800000E+00
  1.1800000E+00
  1.1800000E+00
  1.1800000E+00
  1.1800000E+00
  1.1800000E+00
  1.1800000E+00
  1.1800000E+00
  1.1800000E+00
  1.1800000E+00
  1.1800000E+00
  1.1800000E+00
  1.1800000E+00
  1.1800000E+00
  1.1800000E+00
  1.1794443E+00
  1.1800000E+00
  1.1800000E+00
  1.1800000E+00
  1.1800000E+00
  1.1800000E+00
  1.1800000E+00
  1.1800000E+00
  1.1800000E+00
  1.1800000E+00
  1.1800000E+00
  1.1800000E+00
  1.1800000E+00
  1.1800000E+00
  1.1800000E+00
  1.1800000E+00
  1.1800000E+00
  1.1800000E+00
  1.1800000E+00
  1.1800000E+00
  1.1793318E+00
  1.1800000E+00
  1.1800000E+00
  1.1800000E+00
  1.1800000E+00
  1.1800000E+00
  1.1800000E+00
  1.1800000E+00
  1.1800000E+00
  1.1800000E+00
  1.1800000E+00
  1.1800000E+00
  1.1800000E+00
  1.1800000E+00
  1.1800000E+00
  1.1800000E+00
  1.1800000E+00
  1.1800000E+00
  1.1800000E+00
  1.1800000E+00
  1.1800000E+00
  1.1800000E+00
  1.1800000E+00
  1.1800000E+00
  1.1800000E+00
  1.1800000E+00
  1.1800000E+00
  1.1800000E+00
  1.1800000E+00
  1.1800000E+00
  1.1800000E+00
  1.1799378E+00
  1.1800000E+00
  1.1800000E+00
  1.1800000E+00
  1.1800000E+00
  1.1800000E+00
  1.1800000E+00
  1.1800000E+00
  1.1800000E+00
  1.1800000E+00
  1.1799767E+00
  1.1800000E+00
  1.1800000E+00
  1.1800000E+00
  1.1800000E+00
  1.1800000E+00
  1.1800000E+00
  1.1800000E+00
  1.1800000E+00
  1.1800000E+00
  1.1800000E+00
  1.1800000E+00
  1.1800000E+00
  1.1800000E+00
  1.1799532E+00
  1.1800000E+00
  1.1800000E+00
  1.1800000E+00
  1.1800000E+00
  1.1800000E+00
  1.1800000E+00
  1.1800000E+00
  1.1800000E+00
  1.1800000E+00
  1.1800000E+00
  1.1800000E+00
  1.1800000E+00
  1.1800000E+00
  1.1800000E+00
  1.1800000E+00
  1.1800000E+00
  1.1800000E+00
  1.1800000E+00
  1.1800000E+00
  1.1800000E+00
  1.1798221E+00
  1.1800000E+00
  1.1800000E+00
  1.1800000E+00
  1.1800000E+00
  1.1800000E+00
  1.1800000E+00
  1.1800000E+00
  1.1800000E+00
  1.1800000E+00
  1.1800000E+00
  1.1800000E+00
  1.1796088E+00
  1.1800000E+00
  1.1800000E+00
  1.1800000E+00
  1.1800000E+00
  1.1800000E+00
  1.1800000E+00
  1.1800000E+00
  1.1800000E+00
  1.1800000E+00
  1.1800000E+00
  1.1800000E+00
  1.1800000E+00
  1.1800000E+00
  1.1800000E+00
  1.1800000E+00
  1.1800000E+00
  1.1800000E+00
  1.1800000E+00
  1.1800000E+00
  1.1800000E+00
  1.1800000E+00
  1.1800000E+00
  1.1800000E+00
  1.1800000E+00
  1.1800000E+00
  1.1800000E+00
  1.1800000E+00
  1.1800000E+00
  1.1800000E+00
  1.1800000E+00
  1.1800000E+00
  1.1800000E+00
  1.1800000E+00
  1.1800000E+00
  1.1800000E+00
  1.1800000E+00
  1.1800000E+00
  1.1800000E+00
  1.1800000E+00
  1.1800000E+00
  1.1800000E+00
  1.1800000E+00
  1.1800000E+00
  1.1799018E+00
  1.1799849E+00
  1.1800000E+00
  1.1800000E+00
  1.1800000E+00
  1.1800000E+00
  1.1800000E+00
  1.1800000E+00
  1.1800000E+00
  1.1800000E+00
  1.1798806E+00
  1.1800000E+00
  1.1800000E+00
  1.1800000E+00
  1.1800000E+00
  1.1800000E+00
  1.1800000E+00
  1.1800000E+00
  1.1800000E+00
  1.1800000E+00
  1.1800000E+00
  1.1800000E+00
  1.1800000E+00
  1.1800000E+00
  1.1800000E+00
  1.1800000E+00
  1.1800000E+00
  1.1800000E+00
  1.1800000E+00
  1.1800000E+00
  1.1800000E+00
  1.1800000E+00
  1.1800000E+00
  1.1800000E+00
  1.1800000E+00
  1.1800000E+00
  1.1800000E+00
  1.1800000E+00
  1.1800000E+00
  1.1800000E+00
  1.1799835E+00
  1.1800000E+00
  1.1800000E+00
  1.1800000E+00
  1.1800000E+00
  1.1800000E+00
  1.1800000E+00
  1.1800000E+00
  1.1798414E+00
  1.1800000E+00
  1.1800000E+00
  1.1800000E+00
  1.1800000E+00
  1.1800000E+00
  1.1800000E+00
  1.1800000E+00
  1.1799689E+00
  1.1800000E+00
  1.1800000E+00
  1.1800000E+00
  1.1800000E+00
  1.1800000E+00
  1.1800000E+00
  1.1800000E+00
  1.1800000E+00
  1.1800000E+00
  1.1800000E+00
  1.1800000E+00
  1.1800000E+00
  1.1800000E+00
  1.1800000E+00
  1.1800000E+00
  1.1800000E+00
  1.1800000E+00
  1.1800000E+00
  1.1800000E+00
  1.1800000E+00
  1.1800000E+00
  1.1800000E+00
  1.1800000E+00
  1.1800000E+00
  1.1800000E+00
  1.1800000E+00
  1.1800000E+00
  1.1800000E+00
  1.1800000E+00
  1.1800000E+00
  1.1797979E+00
  1.1800000E+00
  1.1800000E+00
  1.1800000E+00
  1.1800000E+00
  1.1800000E+00
  1.1800000E+00
  1.1794408E+00
  1.1800000E+00
  1.1800000E+00
  1.1800000E+00
  1.1800000E+00
  1.1800000E+00
  1.1800000E+00
  1.1800000E+00
  1.1800000E+00
  1.1800000E+00
  1.1800000E+00
  1.1800000E+00
  1.1800000E+00
  1.1800000E+00
  1.1800000E+00
  1.1800000E+00
  1.1800000E+00
  1.1800000E+00
  1.1800000E+00
  1.1800000E+00
  1.1800000E+00
  1.1796693E+00
  1.1800000E+00
  1.1800000E+00
  1.1800000E+00
  1.1800000E+00
  1.1800000E+00
  1.1792371E+00
  1.1799998E+00
  1.1800000E+00
  1.1800000E+00
  1.1800000E+00
  1.1800000E+00
  1.1800000E+00
  1.1800000E+00
  1.1800000E+00
  1.1800000E+00
  1.1800000E+00
  1.1800000E+00
  1.1800000E+00
  1.1800000E+00
  1.1800000E+00
  1.1800000E+00
  1.1800000E+00
  1.1800000E+00
  1.1800000E+00
  1.1800000E+00
  1.1800000E+00
  1.1800000E+00
  1.1800000E+00
  1.1800000E+00
  1.1800000E+00
  1.1800000E+00
  1.1800000E+00
  1.1800000E+00
  1.1800000E+00
  1.1794989E+00
  1.1800000E+00
  1.1800000E+00
  1.1800000E+00
  1.1800000E+00
  1.1789505E+00
  1.1799577E+00
  1.1800000E+00
  1.1800000E+00
  1.1800000E+00
  1.1800000E+00
  1.1800000E+00
  1.1800000E+00
  1.1800000E+00
  1.1800000E+00
  1.1800000E+00
  1.1800000E+00
  1.1800000E+00
  1.1800000E+00
  1.1800000E+00
  1.1800000E+00
  1.1800000E+00
  1.1800000E+00
  1.1800000E+00
  1.1800000E+00
  1.1800000E+00
  1.1800000E+00
  1.1790595E+00
  1.1800000E+00
  1.1800000E+00
  1.1800000E+00
  1.1798369E+00
  1.1800000E+00
  1.1800000E+00
  1.1800000E+00
  1.1800000E+00
  1.1800000E+00
  1.1800000E+00
  1.1800000E+00
  1.1800000E+00
  1.1800000E+00
  1.1800000E+00
  1.1800000E+00
  1.1800000E+00
  1.1800000E+00
  1.1800000E+00
  1.1800000E+00
  1.1800000E+00
  1.1800000E+00
  1.1800000E+00
  1.1800000E+00
  1.1800000E+00
  1.1800000E+00
  1.1800000E+00
  1.1800000E+00
  1.1793126E+00
  1.1799915E+00
  1.1800000E+00
  1.1796543E+00
  1.1800000E+00
  1.1800000E+00
  1.1800000E+00
  1.1800000E+00
  1.1800000E+00
  1.1800000E+00
  1.1800000E+00
  1.1800000E+00
  1.1800000E+00
  1.1800000E+00
  1.1800000E+00
  1.1800000E+00
  1.1800000E+00
  1.1800000E+00
  1.1800000E+00
  1.1800000E+00
  1.1800000E+00
  1.1788261E+00
  1.1799541E+00
  1.1800000E+00
  1.1800000E+00
  1.1800000E+00
  1.1800000E+00
  1.1800000E+00
  1.1800000E+00
  1.1800000E+00
  1.1784790E+00
  1.1788731E+00
  1.1800000E+00
  1.1800000E+00
  1.1800000E+00
  1.1800000E+00
  1.1800000E+00
  1.1800000E+00
  1.1800000E+00
  1.1800000E+00
  1.1800000E+00
  1.1800000E+00
  1.1800000E+00
  1.1800000E+00
  1.1800000E+00
  1.1800000E+00
  1.1800000E+00
  1.1800000E+00
  1.1800000E+00
  1.1800000E+00
  1.1800000E+00
  1.1800000E+00
  1.1800000E+00
  1.1789872E+00
  1.1799418E+00
  1.1800000E+00
  1.1800000E+00
  1.1800000E+00
  1.1800000E+00
  1.1800000E+00
  1.1800000E+00
  1.1800000E+00
  1.1800000E+00
  1.1800000E+00
  1.1800000E+00
  1.1800000E+00
  1.1795617E+00
  1.1800000E+00
  1.1800000E+00
  1.1800000E+00
  1.1800000E+00
  1.1800000E+00
  1.1800000E+00
  1.1800000E+00
  1.1800000E+00
  1.1800000E+00
  1.1800000E+00
  1.1800000E+00
  1.1800000E+00
  1.1800000E+00
  1.1800000E+00
  1.1800000E+00
  1.1800000E+00
  1.1800000E+00
  1.1800000E+00
  1.1800000E+00
  1.1800000E+00
  1.1798131E+00
  1.1799693E+00
  1.1800000E+00
  1.1800000E+00
  1.1800000E+00
  1.1800000E+00
  1.1800000E+00
  1.1800000E+00
  1.1800000E+00
  1.1800000E+00
  1.1800000E+00
  1.1800000E+00
  1.1796575E+00
  1.1799312E+00
  1.1800000E+00
  1.1800000E+00
  1.1800000E+00
  1.1800000E+00
  1.1800000E+00
  1.1800000E+00
  1.1800000E+00
  1.1800000E+00
  1.1800000E+00
  1.1800000E+00
  1.1800000E+00
  1.1800000E+00
  1.1800000E+00
  1.1800000E+00
  1.1800000E+00
  1.1800000E+00
  1.1800000E+00
  1.1797408E+00
  1.1798819E+00
  1.1800000E+00
  1.1800000E+00
  1.1800000E+00
  1.1800000E+00
  1.1800000E+00
  1.1800000E+00
  1.1800000E+00
  1.1800000E+00
  1.1800000E+00
  1.1793544E+00
  1.1799989E+00
  1.1800000E+00
  1.1800000E+00
  1.1800000E+00
  1.1800000E+00
  1.1800000E+00
  1.1800000E+00
  1.1792260E+00
  1.1796309E+00
  1.1798807E+00
  1.1799997E+00
  1.1800000E+00
  1.1800000E+00
  1.1800000E+00
  1.1800000E+00
  1.1800000E+00
  1.1800000E+00
  1.1800000E+00
  1.1800000E+00
  1.1799415E+00
  1.1798772E+00
  1.1797185E+00
  1.1799167E+00
  1.1797946E+00
  1.1794190E+00
  1.1788128E+00
  1.1795426E+00
  1.1793186E+00
 -2.0351090E-02
 -1.9388492E-02
 -2.1572919E-02
 -2.3155647E-02
 -2.3635157E-02
 -2.3498182E-02
 -2.2915053E-02
 -2.2281322E-02
 -2.1614159E-02
 -2.0909769E-02
 -2.0475425E-02
 -2.0718594E-02
 -2.1873781E-02
 -2.3603539E-02
 -2.5551668E-02
 -2.7819686E-02
 -2.5159923E-02
 -2.7082602E-02
 -2.6544099E-02
 -2.5023576E-02
 -2.3760461E-02
 -2.2631937E-02
 -2.1250305E-02
 -2.0468750E-02
  9.8581223E-01
  9.7642715E-01
  9.6732767E-01
  9.5760358E-01
  9.4769924E-01
  9.3901136E-01
  9.3168522E-01
  9.2380162E-01
  9.1488923E-01
  9.0541981E-01
  8.9563931E-01
  8.8565547E-01
  8.7547232E-01
  8.6493847E-01
  8.5316100E-01
  8.4151973E-01
  8.3069154E-01
  8.1986579E-01
  8.0881342E-01
  7.9804908E-01
  7.8777784E-01
  7.7704205E-01
  7.6752788E-01
  7.5967215E-01
  7.5064266E-01
  7.4103727E-01
  7.3112554E-01
  7.2100565E-01
  7.1070042E-01
  7.0018037E-01
  6.8935674E-01
  6.7806817E-01
  6.6649031E-01
  6.5494743E-01
  6.4364280E-01
  6.3238637E-01
  6.2040150E-01
  6.0820183E-01