 VARIABLES = "X" "Y" "Z" "CURVATURE RADIUS"
 ZONE T="pass_31"
N=33151 E=66298
 ZONETYPE=FETriangle
 DATAPACKING=BLOCK
 VARLOCATION = ([1-4]=NODAL)
 
 -7.9132083E-02
 -7.8689060E-02
 -7.8985466E-02
 -7.9028682E-02
 -7.8959397E-02
 -7.8805921E-02
 -7.8556416E-02
 -7.8271123E-02
 -7.8165547E-02
 -7.8208884E-02
 -7.8414721E-02
 -7.8726693E-02
 -7.9049240E-02
 -7.9060143E-02
 -7.9443803E-02
 -7.9255481E-02
 -7.8915375E-02
 -7.8426677E-02
 -7.7785004E-02
 -7.6961223E-02
 -7.7344898E-02
 -7.8474495E-02
 -7.8497014E-02
 -7.8764659E-02
 -7.8997025E-02
 -7.9106883E-02
 -7.9596376E-02
 -7.9038894E-02
 -7.8973246E-02
 -7.8887510E-02
 -7.8847448E-02
 -7.8753110E-02
 -7.8528487E-02
 -7.8169230E-02
 -7.8121295E-02
 -7.8440794E-02
 -7.8648665E-02
 -7.8725383E-02
 -7.8704049E-02
 -7.8984502E-02
 -7.9218769E-02
 -7.9391286E-02
 -7.8604824E-02
 -7.8931155E-02
 -7.8060866E-02
 -7.8280272E-02
 -7.7023357E-02
 -7.7483099E-02
 -7.8280465E-02
 -7.7568430E-02
 -7.8234669E-02
 -7.8769431E-02
 -7.9252766E-02
 -7.8977651E-02
 -7.8475218E-02
 -7.8725000E-02
 -7.8716941E-02
 -7.8582941E-02
 -7.8234959E-02
 -7.7890105E-02
 -7.7720213E-02
 -7.7426825E-02
 -7.8586846E-02
 -7.8385300E-02
 -7.8246763E-02
 -8.0000000E-02
 -8.0000000E-02
 -7.9919563E-02
 -8.0000000E-02
 -7.9905652E-02
 -8.0000000E-02
 -7.9991741E-02
 -7.9998657E-02
 -7.9997845E-02
 -8.0000000E-02
 -7.9926960E-02
 -7.9828598E-02
 -7.9714703E-02
 -7.9960538E-02
 -7.9776770E-02
 -7.9438104E-02
 -8.0000000E-02
 -7.9989821E-02
 -8.0000000E-02
 -7.9980322E-02
 -8.0000000E-02
 -8.0000000E-02
 -8.0000000E-02
 -7.9897725E-02
 -8.0000000E-02
 -8.0000000E-02
 -8.0000000E-02
 -8.0000000E-02
 -8.0000000E-02
 -8.0000000E-02
 -8.0000000E-02
 -8.0000000E-02
 -8.0000000E-02
 -8.0000000E-02
 -8.0000000E-02
 -8.0000000E-02
 -7.9920432E-02
 -8.0000000E-02
 -8.0000000E-02
 -8.0000000E-02
 -8.0000000E-02
 -7.9898991E-02
 -7.9957701E-02
 -8.0000000E-02
 -8.0000000E-02
 -8.0000000E-02
 -8.0000000E-02
 -7.9950692E-02
 -8.0000000E-02
 -8.0000000E-02
 -8.0000000E-02
 -8.0000000E-02
 -8.0000000E-02
 -8.0000000E-02
 -8.0000000E-02
 -8.0000000E-02
 -8.0000000E-02
 -7.9966895E-02
 -8.0000000E-02
 -8.0000000E-02
 -8.0000000E-02
 -8.0000000E-02
 -8.0000000E-02
 -7.9969830E-02
 -8.0000000E-02
 -8.0000000E-02
 -8.0000000E-02
 -8.0000000E-02
 -8.0000000E-02
 -8.0000000E-02
 -8.0000000E-02
 -8.0000000E-02
 -8.0000000E-02
 -7.9963693E-02
 -8.0000000E-02
 -8.0000000E-02
 -8.0000000E-02
 -8.0000000E-02
 -8.0000000E-02
 -8.0000000E-02
 -8.0000000E-02
 -8.0000000E-02
 -7.9962132E-02
 -8.0000000E-02
 -8.0000000E-02
 -8.0000000E-02
 -8.0000000E-02
 -8.0000000E-02
 -8.0000000E-02
 -8.0000000E-02
 -8.0000000E-02
 -8.0000000E-02
 -8.0000000E-02
 -7.9978385E-02
 -8.0000000E-02
 -8.0000000E-02
 -8.0000000E-02
 -8.0000000E-02
 -8.0000000E-02
 -8.0000000E-02
 -8.0000000E-02
 -7.9993362E-02
 -8.0000000E-02
 -8.0000000E-02
 -8.0000000E-02
 -8.0000000E-02
 -8.0000000E-02
 -8.0000000E-02
 -8.0000000E-02
 -8.0000000E-02
 -8.0000000E-02
 -8.0000000E-02
 -8.0000000E-02
 -8.0000000E-02
 -8.0000000E-02
 -7.9998607E-02
 -8.0000000E-02
 -8.0000000E-02
 -8.0000000E-02
 -7.9978223E-02
 -8.0000000E-02
 -8.0000000E-02
 -8.0000000E-02
 -8.0000000E-02
 -8.0000000E-02
 -8.0000000E-02
 -8.0000000E-02
 -8.0000000E-02
 -8.0000000E-02
 -8.0000000E-02
 -8.0000000E-02
 -8.0000000E-02
 -8.0000000E-02
 -8.0000000E-02
 -7.9996513E-02
 -8.0000000E-02
 -8.0000000E-02
 -8.0000000E-02
 -8.0000000E-02
 -8.0000000E-02
 -8.0000000E-02
 -8.0000000E-02
 -8.0000000E-02
 -8.0000000E-02
 -8.0000000E-02
 -8.0000000E-02
 -8.0000000E-02
 -8.0000000E-02
 -8.0000000E-02
 -8.0000000E-02
 -8.0000000E-02
 -8.0000000E-02
 -8.0000000E-02
 -8.0000000E-02
 -8.0000000E-02
 -8.0000000E-02
 -8.0000000E-02
 -8.0000000E-02
 -8.0000000E-02
 -8.0000000E-02
 -8.0000000E-02
 -8.0000000E-02
 -8.0000000E-02
 -8.0000000E-02
 -8.0000000E-02
 -8.0000000E-02
 -8.0000000E-02
 -8.0000000E-02
 -8.0000000E-02
 -8.0000000E-02
 -8.0000000E-02
 -8.0000000E-02
 -8.0000000E-02
 -8.0000000E-02
 -8.0000000E-02
 -8.0000000E-02
 -8.0000000E-02
 -7.9953541E-02
 -8.0000000E-02
 -8.0000000E-02
 -8.0000000E-02
 -8.0000000E-02
 -8.0000000E-02
 -8.0000000E-02
 -7.9702126E-02
 -8.0000000E-02
 -8.0000000E-02
 -8.0000000E-02
 -8.0000000E-02
 -8.0000000E-02
 -8.0000000E-02
 -8.0000000E-02
 -8.0000000E-02
 -8.0000000E-02
 -8.0000000E-02
 -8.0000000E-02
 -8.0000000E-02
 -7.9050139E-02
 -8.0000000E-02
 -8.0000000E-02
 -8.0000000E-02
 -8.0000000E-02
 -8.0000000E-02
 -8.0000000E-02
 -7.9644905E-02
 -8.0000000E-02
 -7.9651685E-02
 -8.0000000E-02
 -8.0000000E-02
 -8.0000000E-02
 -8.0000000E-02
 -8.0000000E-02
 -8.0000000E-02
 -8.0000000E-02
 -8.0000000E-02
 -8.0000000E-02
 -8.0000000E-02
 -8.0000000E-02
 -8.0000000E-02
 -7.9913447E-02
 -7.9912449E-02
 -8.0000000E-02
 -8.0000000E-02
 -8.0000000E-02
 -8.0000000E-02
 -8.0000000E-02
 -7.9984216E-02
 -8.0000000E-02
 -8.0000000E-02
 -8.0000000E-02
 -8.0000000E-02
 -8.0000000E-02
 -8.0000000E-02
 -8.0000000E-02
 -8.0000000E-02
 -8.0000000E-02
 -8.0000000E-02
 -8.0000000E-02
 -8.0000000E-02
 -8.0000000E-02
 -8.0000000E-02
 -8.0000000E-02
 -8.0000000E-02
 -8.0000000E-02
 -7.9999897E-02
 -8.0000000E-02
 -8.0000000E-02
 -8.0000000E-02
 -8.0000000E-02
 -7.9775993E-02
 -8.0000000E-02
 -8.0000000E-02
 -8.0000000E-02
 -8.0000000E-02
 -8.0000000E-02
 -8.0000000E-02
 -8.0000000E-02
 -8.0000000E-02
 -8.0000000E-02
 -8.0000000E-02
 -8.0000000E-02
 -7.9990915E-02
 -8.0000000E-02
 -8.0000000E-02
 -8.0000000E-02
 -8.0000000E-02
 -8.0000000E-02
 -8.0000000E-02
 -8.0000000E-02
 -8.0000000E-02
 -8.0000000E-02
 -8.0000000E-02
 -8.0000000E-02
 -7.9990090E-02
 -8.0000000E-02
 -8.0000000E-02
 -8.0000000E-02
 -8.0000000E-02
 -8.0000000E-02
 -8.0000000E-02
 -8.0000000E-02
 -8.0000000E-02
 -8.0000000E-02
 -8.0000000E-02
 -8.0000000E-02
 -8.0000000E-02
 -8.0000000E-02
 -8.0000000E-02
 -8.0000000E-02
 -8.0000000E-02
 -8.0000000E-02
 -8.0000000E-02
 -8.0000000E-02
 -8.0000000E-02
 -8.0000000E-02
 -7.9860735E-02
 -8.0000000E-02
 -8.0000000E-02
 -8.0000000E-02
 -8.0000000E-02
 -8.0000000E-02
 -8.0000000E-02
 -8.0000000E-02
 -8.0000000E-02
 -8.0000000E-02
 -8.0000000E-02
 -8.0000000E-02
 -8.0000000E-02
 -8.0000000E-02
 -8.0000000E-02
 -8.0000000E-02
 -8.0000000E-02
 -8.0000000E-02
 -8.0000000E-02
 -7.9998294E-02
 -8.0000000E-02
 -8.0000000E-02
 -8.0000000E-02
 -8.0000000E-02
 -8.0000000E-02
 -8.0000000E-02
 -8.0000000E-02
 -8.0000000E-02
 -8.0000000E-02
 -8.0000000E-02
 -8.0000000E-02
 -7.9979740E-02
 -8.0000000E-02
 -8.0000000E-02
 -8.0000000E-02
 -7.9931621E-02
  1.1795031E+00
  1.1797076E+00
  1.1796583E+00
  1.1795397E+00
  1.1793721E+00
  1.1792138E+00
  1.1790290E+00
  1.1785553E+00
  1.1791093E+00
  1.1785697E+00
  1.1778676E+00
  1.1786181E+00
  1.1781866E+00
  1.1775648E+00
  1.1784048E+00
  1.1781321E+00
  1.1775363E+00
  1.1781465E+00
  1.1773138E+00
  1.1778619E+00
  1.1771270E+00
  1.1785680E+00
  1.1777391E+00
  1.1781168E+00
  1.1785703E+00
  1.1791529E+00
  1.1795918E+00
  1.1788234E+00
  1.1792008E+00
  1.1786752E+00
  1.1789324E+00
  1.1789259E+00
  1.1788048E+00
  1.1784779E+00
  1.1777699E+00
  1.1779736E+00
  1.1780061E+00
  1.1781076E+00
  1.1783482E+00
  1.1785472E+00
  1.1786221E+00
  1.1785067E+00
  1.1782935E+00
  1.1779491E+00
  1.1774301E+00
  1.1766291E+00
  1.1769866E+00
  1.1777963E+00
  1.1780229E+00
  1.1790679E+00
  1.1788345E+00
  1.1792721E+00
  1.1792067E+00
  1.1796195E+00
  1.1795056E+00
  1.1793589E+00
  1.1792397E+00
  1.1791646E+00
  1.1790143E+00
  1.1788451E+00
  1.1785271E+00
  1.1782238E+00
  1.1780889E+00
  1.1778842E+00
  1.1777890E+00
  1.1775087E+00
  1.1771772E+00
  1.1780982E+00
  1.1778345E+00
  1.1776449E+00
  1.1770715E+00
  1.1762733E+00
  1.1761169E+00
  1.1771620E+00
  1.1775819E+00
  1.1787245E+00
  1.1782960E+00
  1.1783021E+00
  1.1796905E+00
  1.1795622E+00
  1.1795788E+00
  1.1795737E+00
  1.1794715E+00
  1.1794052E+00
  1.1793680E+00
  1.1792507E+00
  1.1789793E+00
  1.1787610E+00
  1.1786700E+00
  1.1786260E+00
  1.1785790E+00
  1.1784815E+00
  1.1782591E+00
  1.1776679E+00
  1.1781199E+00
  1.1781758E+00
  1.1779946E+00
  1.1775900E+00
  1.1768720E+00
  1.1780204E+00
  1.1789521E+00
  1.1792987E+00
  1.1792360E+00
  1.1789965E+00
  1.1796302E+00
  1.1791191E+00
  1.1786019E+00
  1.1787924E+00
  1.1787528E+00
  1.1786265E+00
  1.1789798E+00
  1.1780877E+00
  1.1778986E+00
  1.1773533E+00
  1.1776647E+00
  1.1777779E+00
  1.1778198E+00
  1.1779672E+00
  1.1779230E+00
  1.1779623E+00
  1.1778022E+00
  1.1776652E+00
  1.1775607E+00
  1.1773284E+00
  1.1768745E+00
  1.1779412E+00
  1.1787701E+00
  1.1791674E+00
  1.1792164E+00
  1.1789786E+00
  1.1800000E+00
  1.1800000E+00
  1.1800000E+00
  1.1800000E+00
  1.1800000E+00
  1.1800000E+00
  1.1800000E+00
  1.1800000E+00
  1.1800000E+00
  1.1800000E+00
  1.1800000E+00
  1.1800000E+00
  1.1800000E+00
  1.1800000E+00
  1.1800000E+00
  1.1800000E+00
  1.1800000E+00
  1.1800000E+00
  1.1800000E+00
  1.1800000E+00
  1.1800000E+00
  1.1800000E+00
  1.1800000E+00
  1.1800000E+00
  1.1800000E+00
  1.1800000E+00
  1.1800000E+00
  1.1800000E+00
  1.1800000E+00
  1.1800000E+00
  1.1800000E+00
  1.1800000E+00
  1.1800000E+00
  1.1800000E+00
  1.1800000E+00
  1.1800000E+00
  1.1800000E+00
  1.1800000E+00
  1.1799448E+00
  1.1795717E+00
  1.1796479E+00
  1.1799859E+00
  1.1799251E+00
  1.1799980E+00
  1.1800000E+00
  1.1800000E+00
  1.1800000E+00
  1.1800000E+00
  1.1800000E+00
  1.1800000E+00
  1.1800000E+00
  1.1800000E+00
  1.1800000E+00
  1.1798866E+00
  1.1800000E+00
  1.1800000E+00
  1.1800000E+00
  1.1800000E+00
  1.1800000E+00
  1.1800000E+00
  1.1800000E+00
  1.1800000E+00
  1.1800000E+00
  1.1800000E+00
  1.1800000E+00
  1.1800000E+00
  1.1800000E+00
  1.1800000E+00
  1.1799513E+00
  1.1800000E+00
  1.1800000E+00
  1.1800000E+00
  1.1800000E+00
  1.1800000E+00
  1.1800000E+00
  1.1800000E+00
  1.1800000E+00
  1.1800000E+00
  1.1800000E+00
  1.1800000E+00
  1.1800000E+00
  1.1800000E+00
  1.1800000E+00
  1.1800000E+00
  1.1800000E+00
  1.1800000E+00
  1.1800000E+00
  1.1800000E+00
  1.1799369E+00
  1.1800000E+00
  1.1800000E+00
  1.1800000E+00
  1.1800000E+00
  1.1800000E+00
  1.1800000E+00
  1.1800000E+00
  1.1800000E+00
  1.1800000E+00
  1.1800000E+00
  1.1800000E+00
  1.1800000E+00
  1.1800000E+00
  1.1800000E+00
  1.1800000E+00
  1.1800000E+00
  1.1800000E+00
  1.1795055E+00
  1.1800000E+00
  1.1800000E+00
  1.1800000E+00
  1.1800000E+00
  1.1800000E+00
  1.1800000E+00
  1.1800000E+00
  1.1800000E+00
  1.1800000E+00
  1.1800000E+00
  1.1800000E+00
  1.1800000E+00
  1.1800000E+00
  1.1800000E+00
  1.1800000E+00
  1.1800000E+00
  1.1800000E+00
  1.1800000E+00
  1.1800000E+00
  1.1793286E+00
  1.1800000E+00
  1.1800000E+00
  1.1800000E+00
  1.1800000E+00
  1.1800000E+00
  1.1795820E+00
  1.1800000E+00
  1.1800000E+00
  1.1800000E+00
  1.1800000E+00
  1.1800000E+00
  1.1800000E+00
  1.1800000E+00
  1.1800000E+00
  1.1800000E+00
  1.1800000E+00
  1.1800000E+00
  1.1794012E+00
  1.1800000E+00
  1.1800000E+00
  1.1800000E+00
  1.1800000E+00
  1.1800000E+00
  1.1800000E+00
  1.1800000E+00
  1.1800000E+00
  1.1800000E+00
  1.1798902E+00
  1.1800000E+00
  1.1800000E+00
  1.1800000E+00
  1.1800000E+00
  1.1800000E+00
  1.1800000E+00
  1.1800000E+00
  1.1800000E+00
  1.1800000E+00
  1.1800000E+00
  1.1800000E+00
  1.1800000E+00
  1.1800000E+00
  1.1800000E+00
  1.1795313E+00
  1.1800000E+00
  1.1800000E+00
  1.1800000E+00
  1.1800000E+00
  1.1800000E+00
  1.1800000E+00
  1.1800000E+00
  1.1798157E+00
  1.1800000E+00
  1.1800000E+00
  1.1800000E+00
  1.1800000E+00
  1.1800000E+00
  1.1800000E+00
  1.1800000E+00
  1.1800000E+00
  1.1800000E+00
  1.1800000E+00
  1.1800000E+00
  1.1800000E+00
  1.1800000E+00
  1.1800000E+00
  1.1800000E+00
  1.1800000E+00
  1.1800000E+00
  1.1800000E+00
  1.1800000E+00
  1.1800000E+00
  1.1796426E+00
  1.1800000E+00
  1.1800000E+00
  1.1800000E+00
  1.1800000E+00
  1.1800000E+00
  1.1800000E+00
  1.1800000E+00
  1.1800000E+00
  1.1800000E+00
  1.1800000E+00
  1.1793534E+00
  1.1800000E+00
  1.1800000E+00
  1.1800000E+00
  1.1800000E+00
  1.1800000E+00
  1.1800000E+00
  1.1800000E+00
  1.1800000E+00
  1.1800000E+00
  1.1800000E+00
  1.1800000E+00
  1.1800000E+00
  1.1800000E+00
  1.1800000E+00
  1.1800000E+00
  1.1800000E+00
  1.1796678E+00
  1.1800000E+00
  1.1800000E+00
  1.1800000E+00
  1.1800000E+00
  1.1800000E+00
  1.1800000E+00
  1.1800000E+00
  1.1800000E+00
  1.1800000E+00
  1.1798777E+00
  1.1800000E+00
  1.1800000E+00
  1.1800000E+00
  1.1800000E+00
  1.1800000E+00
  1.1800000E+00
  1.1800000E+00
  1.1800000E+00
  1.1792929E+00
  1.1800000E+00
  1.1800000E+00
  1.1800000E+00
  1.1800000E+00
  1.1800000E+00
  1.1800000E+00
  1.1800000E+00
  1.1800000E+00
  1.1800000E+00
  1.1800000E+00
  1.1800000E+00
  1.1800000E+00
  1.1800000E+00
  1.1800000E+00
  1.1800000E+00
  1.1800000E+00
  1.1800000E+00
  1.1796280E+00
  1.1800000E+00
  1.1800000E+00
  1.1800000E+00
  1.1800000E+00
  1.1800000E+00
  1.1800000E+00
  1.1800000E+00
  1.1800000E+00
  1.1800000E+00
  1.1800000E+00
  1.1793448E+00
  1.1800000E+00
  1.1800000E+00
  1.1800000E+00
  1.1800000E+00
  1.1800000E+00
  1.1800000E+00
  1.1800000E+00
  1.1800000E+00
  1.1800000E+00
  1.1800000E+00
  1.1800000E+00
  1.1800000E+00
  1.1800000E+00
  1.1800000E+00
  1.1800000E+00
  1.1800000E+00
  1.1800000E+00
  1.1800000E+00
  1.1800000E+00
  1.1800000E+00
  1.1800000E+00
  1.1800000E+00
  1.1800000E+00
  1.1800000E+00
  1.1798291E+00
  1.1800000E+00
  1.1800000E+00
  1.1800000E+00
  1.1800000E+00
  1.1800000E+00
  1.1800000E+00
  1.1800000E+00
  1.1800000E+00
  1.1800000E+00
  1.1800000E+00
  1.1800000E+00
  1.1800000E+00
  1.1799996E+00
  1.1800000E+00
  1.1800000E+00
  1.1800000E+00
  1.1800000E+00
  1.1800000E+00
  1.1800000E+00
  1.1800000E+00
  1.1800000E+00
  1.1800000E+00
  1.1800000E+00
  1.1800000E+00
  1.1800000E+00
  1.1800000E+00
  1.1800000E+00
  1.1800000E+00
  1.1800000E+00
  1.1800000E+00
  1.1799663E+00
  1.1800000E+00
  1.1800000E+00
  1.1800000E+00
  1.1800000E+00
  1.1800000E+00
  1.1800000E+00
  1.1800000E+00
  1.1800000E+00
  1.1800000E+00
  1.1800000E+00
  1.1800000E+00
  1.1800000E+00
  1.1800000E+00
  1.1800000E+00
  1.1800000E+00
  1.1800000E+00
  1.1799998E+00
  1.1800000E+00
  1.1800000E+00
  1.1800000E+00
  1.1800000E+00
  1.1800000E+00
  1.1800000E+00
  1.1800000E+00
  1.1800000E+00
  1.1800000E+00
  1.1800000E+00
  1.1800000E+00
  1.1800000E+00
  1.1800000E+00
  1.1800000E+00
  1.1800000E+00
  1.1800000E+00
  1.1800000E+00
  1.1800000E+00
  1.1800000E+00
  1.1800000E+00
  1.1800000E+00
  1.1800000E+00
  1.1800000E+00
  1.1800000E+00
  1.1800000E+00
  1.1800000E+00
  1.1799999E+00
  1.1800000E+00
  1.1800000E+00
  1.1800000E+00
  1.1800000E+00
  1.1800000E+00
  1.1800000E+00
  1.1800000E+00
  1.1800000E+00
  1.1800000E+00
  1.1800000E+00
  1.1800000E+00
  1.1800000E+00
  1.1800000E+00
  1.1800000E+00
  1.1800000E+00
  1.1800000E+00
  1.1800000E+00
  1.1800000E+00
  1.1800000E+00
  1.1800000E+00
  1.1800000E+00
  1.1800000E+00
  1.1800000E+00
  1.1800000E+00
  1.1800000E+00
  1.1800000E+00
  1.1795668E+00
  1.1799701E+00
  1.1800000E+00
  1.1800000E+00
  1.1800000E+00
  1.1800000E+00
  1.1800000E+00
  1.1800000E+00
  1.1800000E+00
  1.1800000E+00
  1.1800000E+00
  1.1800000E+00
  1.1800000E+00
  1.1800000E+00
  1.1800000E+00
  1.1800000E+00
  1.1800000E+00
  1.1800000E+00
  1.1800000E+00
  1.1800000E+00
  1.1800000E+00
  1.1800000E+00
  1.1800000E+00
  1.1800000E+00
  1.1800000E+00
  1.1800000E+00
  1.1800000E+00
  1.1800000E+00
  1.1800000E+00
  1.1800000E+00
  1.1800000E+00
  1.1800000E+00
  1.1800000E+00
  1.1800000E+00
  1.1800000E+00
  1.1800000E+00
  1.1800000E+00
  1.1800000E+00
  1.1800000E+00
  1.1800000E+00
  1.1800000E+00
  1.1800000E+00
  1.1800000E+00
  1.1800000E+00
  1.1800000E+00
  1.1800000E+00
  1.1800000E+00
  1.1800000E+00
  1.1800000E+00
  1.1800000E+00
  1.1800000E+00
  1.1800000E+00
  1.1800000E+00
  1.1800000E+00
  1.1800000E+00
  1.1800000E+00
  1.1800000E+00
  1.1800000E+00
  1.1800000E+00
  1.1800000E+00
  1.1800000E+00
  1.1800000E+00
  1.1800000E+00
  1.1800000E+00
  1.1800000E+00
  1.1800000E+00
  1.1800000E+00
  1.1800000E+00
  1.1800000E+00
  1.1800000E+00
  1.1800000E+00
  1.1800000E+00
  1.1800000E+00
  1.1800000E+00
  1.1800000E+00
  1.1800000E+00
  1.1800000E+00
  1.1800000E+00
  1.1800000E+00
  1.1800000E+00
  1.1800000E+00
  1.1800000E+00
  1.1800000E+00
  1.1800000E+00
  1.1800000E+00
  1.1800000E+00
  1.1800000E+00
  1.1800000E+00
  1.1800000E+00
  1.1800000E+00
  1.1800000E+00
  1.1800000E+00
  1.1800000E+00
  1.1800000E+00
  1.1800000E+00
  1.1800000E+00
  1.1800000E+00
  1.1800000E+00
  1.1800000E+00
  1.1800000E+00
  1.1800000E+00
  1.1800000E+00
  1.1800000E+00
  1.1800000E+00
  1.1800000E+00
  1.1800000E+00
  1.1800000E+00
  1.1800000E+00
  1.1800000E+00
  1.1800000E+00
  1.1800000E+00
  1.1800000E+00
  1.1800000E+00
  1.1800000E+00
  1.1800000E+00
  1.1800000E+00
  1.1800000E+00
  1.1800000E+00
  1.1800000E+00
  1.1800000E+00
  1.1800000E+00
  1.1800000E+00
  1.1800000E+00
  1.1800000E+00
  1.1800000E+00
  1.1800000E+00
  1.1800000E+00
  1.1800000E+00
  1.1800000E+00
  1.1800000E+00
  1.1800000E+00
  1.1800000E+00
  1.1800000E+00
  1.1800000E+00
  1.1800000E+00
  1.1800000E+00
  1.1800000E+00
  1.1800000E+00
  1.1800000E+00
  1.1800000E+00
  1.1800000E+00
  1.1800000E+00
  1.1800000E+00
  1.1800000E+00
  1.1800000E+00
  1.1800000E+00
  1.1800000E+00
  1.1800000E+00
  1.1800000E+00
  1.1800000E+00
  1.1800000E+00
  1.1799786E+00
  1.1800000E+00
  1.1800000E+00
  1.1800000E+00
  1.1800000E+00
  1.1800000E+00
  1.1800000E+00
  1.1800000E+00
  1.1800000E+00
  1.1800000E+00
  1.1800000E+00
  1.1793906E+00
  1.1798992E+00
  1.1800000E+00
  1.1800000E+00
  1.1800000E+00
  1.1800000E+00
  1.1800000E+00
  1.1800000E+00
  1.1800000E+00
  1.1800000E+00
  1.1800000E+00
  1.1800000E+00
  1.1800000E+00
  1.1800000E+00
  1.1800000E+00
  1.1800000E+00
  1.1800000E+00
  1.1800000E+00
  1.1800000E+00
  1.1800000E+00
  1.1800000E+00
  1.1799917E+00
  1.1800000E+00
  1.1800000E+00
  1.1800000E+00
  1.1800000E+00
  1.1800000E+00
  1.1800000E+00
  1.1800000E+00
  1.1800000E+00
  1.1800000E+00
  1.1800000E+00
  1.1800000E+00
  1.1800000E+00
  1.1800000E+00
  1.1800000E+00
  1.1800000E+00
  1.1799967E+00
  1.1800000E+00
  1.1800000E+00
  1.1800000E+00
  1.1800000E+00
  1.1800000E+00
  1.1800000E+00
  1.1800000E+00
  1.1800000E+00
  1.1800000E+00
  1.1800000E+00
  1.1800000E+00
  1.1800000E+00
  1.1800000E+00
  1.1800000E+00
  1.1800000E+00
  1.1800000E+00
  1.1800000E+00
  1.1800000E+00
  1.1800000E+00
  1.1800000E+00
  1.1800000E+00
  1.1800000E+00
  1.1800000E+00
  1.1800000E+00
  1.1800000E+00
  1.1800000E+00
  1.1800000E+00
  1.1799986E+00
  1.1800000E+00
  1.1800000E+00
  1.1800000E+00
  1.1800000E+00
  1.1800000E+00
  1.1800000E+00
  1.1800000E+00
  1.1800000E+00
  1.1800000E+00
  1.1800000E+00
  1.1799984E+00
  1.1800000E+00
  1.1800000E+00
  1.1800000E+00
  1.1800000E+00
  1.1797685E+00
  1.1799722E+00
  1.1800000E+00
  1.1800000E+00
  1.1800000E+00
  1.1800000E+00
  1.1800000E+00
  1.1800000E+00
  1.1800000E+00
  1.1800000E+00
  1.1800000E+00
  1.1800000E+00
  1.1800000E+00
  1.1800000E+00
  1.1800000E+00
  1.1800000E+00
  1.1800000E+00
  1.1800000E+00
  1.1800000E+00
  1.1800000E+00
  1.1800000E+00
  1.1800000E+00
  1.1800000E+00
  1.1800000E+00
  1.1800000E+00
  1.1800000E+00
  1.1800000E+00
  1.1800000E+00
  1.1800000E+00
  1.1800000E+00
  1.1800000E+00
  1.1799921E+00
  1.1800000E+00
  1.1800000E+00
  1.1800000E+00
  1.1800000E+00
  1.1800000E+00
  1.1800000E+00
  1.1800000E+00
  1.1800000E+00
  1.1800000E+00
  1.1800000E+00
  1.1800000E+00
  1.1800000E+00
  1.1799874E+00
  1.1800000E+00
  1.1800000E+00
  1.1800000E+00
  1.1800000E+00
  1.1800000E+00
  1.1800000E+00
  1.1800000E+00
  1.1800000E+00
  1.1800000E+00
  1.1800000E+00
  1.1800000E+00
  1.1800000E+00
  1.1799958E+00
  1.1800000E+00
  1.1800000E+00
  1.1800000E+00
  1.1800000E+00
  1.1800000E+00
  1.1800000E+00
  1.1800000E+00
  1.1800000E+00
  1.1800000E+00
  1.1800000E+00
  1.1800000E+00
  1.1800000E+00
  1.1800000E+00
  1.1800000E+00
  1.1800000E+00
  1.1800000E+00
  1.1799511E+00
  1.1800000E+00
  1.1800000E+00
  1.1800000E+00
  1.1800000E+00
  1.1800000E+00
  1.1800000E+00
  1.1800000E+00
  1.1800000E+00
  1.1800000E+00
  1.1800000E+00
  1.1800000E+00
  1.1800000E+00
  1.1800000E+00
  1.1800000E+00
  1.1800000E+00
  1.1798607E+00
  1.1800000E+00
  1.1800000E+00
  1.1800000E+00
  1.1800000E+00
  1.1799635E+00
  1.1800000E+00
  1.1800000E+00
  1.1800000E+00
  1.1800000E+00
  1.1800000E+00
  1.1800000E+00
  1.1800000E+00
  1.1800000E+00
  1.1800000E+00
  1.1800000E+00
  1.1800000E+00
  1.1800000E+00
  1.1800000E+00
  1.1800000E+00
  1.1800000E+00
  1.1800000E+00
  1.1800000E+00
  1.1800000E+00
  1.1800000E+00
  1.1800000E+00
  1.1800000E+00
  1.1800000E+00
  1.1797044E+00
  1.1800000E+00
  1.1800000E+00
  1.1800000E+00
  1.1800000E+00
  1.1800000E+00
  1.1800000E+00
  1.1800000E+00
  1.1800000E+00
  1.1800000E+00
  1.1800000E+00
  1.1800000E+00
  1.1800000E+00
  1.1800000E+00
  1.1800000E+00
  1.1800000E+00
  1.1800000E+00
  1.1800000E+00
  1.1800000E+00
  1.1800000E+00
  1.1795903E+00
  1.1800000E+00
  1.1800000E+00
  1.1800000E+00
  1.1800000E+00
  1.1800000E+00
  1.1800000E+00
  1.1800000E+00
  1.1800000E+00
  1.1800000E+00
  1.1800000E+00
  1.1800000E+00
  1.1800000E+00
  1.1800000E+00
  1.1800000E+00
  1.1800000E+00
  1.1800000E+00
  1.1800000E+00
  1.1800000E+00
  1.1800000E+00
  1.1800000E+00
  1.1800000E+00
  1.1800000E+00
  1.1800000E+00
  1.1800000E+00
  1.1800000E+00
  1.1800000E+00
  1.1800000E+00
  1.1800000E+00
  1.1800000E+00
  1.1800000E+00
  1.1799999E+00
  1.1800000E+00
  1.1800000E+00
  1.1800000E+00
  1.1800000E+00
  1.1800000E+00
  1.1800000E+00
  1.1800000E+00
  1.1800000E+00
  1.1800000E+00
  1.1800000E+00
  1.1800000E+00
  1.1800000E+00
  1.1800000E+00
  1.1800000E+00
  1.1800000E+00
  1.1800000E+00
  1.1800000E+00
  1.1800000E+00
  1.1800000E+00
  1.1800000E+00
  1.1800000E+00
  1.1800000E+00
  1.1800000E+00
  1.1800000E+00
  1.1800000E+00
  1.1800000E+00
  1.1800000E+00
  1.1800000E+00
  1.1800000E+00
  1.1800000E+00
  1.1800000E+00
  1.1800000E+00
  1.1800000E+00
  1.1800000E+00
  1.1800000E+00
  1.1800000E+00
  1.1800000E+00
  1.1800000E+00
  1.1800000E+00
  1.1800000E+00
  1.1800000E+00
  1.1800000E+00
  1.1800000E+00
  1.1800000E+00
  1.1799698E+00
  1.1800000E+00
  1.1800000E+00
  1.1800000E+00
  1.1800000E+00
  1.1800000E+00
  1.1800000E+00
  1.1800000E+00
  1.1800000E+00
  1.1800000E+00
  1.1800000E+00
  1.1800000E+00
  1.1798056E+00
  1.1800000E+00
  1.1800000E+00
  1.1800000E+00
  1.1800000E+00
  1.1800000E+00
  1.1800000E+00
  1.1800000E+00
  1.1800000E+00
  1.1800000E+00
  1.1800000E+00
  1.1800000E+00
  1.1800000E+00
  1.1800000E+00
  1.1800000E+00
  1.1800000E+00
  1.1800000E+00
  1.1800000E+00
  1.1800000E+00
  1.1800000E+00
  1.1800000E+00
  1.1800000E+00
  1.1800000E+00
  1.1800000E+00
  1.1800000E+00
  1.1800000E+00
  1.1800000E+00
  1.1800000E+00
  1.1800000E+00
  1.1800000E+00
  1.1800000E+00
  1.1800000E+00
  1.1800000E+00
  1.1800000E+00
  1.1800000E+00
  1.1800000E+00
  1.1800000E+00
  1.1800000E+00
  1.1800000E+00
  1.1800000E+00
  1.1800000E+00
  1.1800000E+00
  1.1800000E+00
  1.1800000E+00
  1.1799835E+00
  1.1800000E+00
  1.1800000E+00
  1.1800000E+00
  1.1800000E+00
  1.1800000E+00
  1.1800000E+00
  1.1800000E+00
  1.1800000E+00
  1.1800000E+00
  1.1799864E+00
  1.1800000E+00
  1.1800000E+00
  1.1800000E+00
  1.1800000E+00
  1.1800000E+00
  1.1800000E+00
  1.1800000E+00
  1.1800000E+00
  1.1800000E+00
  1.1800000E+00
  1.1800000E+00
  1.1800000E+00
  1.1800000E+00
  1.1800000E+00
  1.1800000E+00
  1.1800000E+00
  1.1800000E+00
  1.1800000E+00
  1.1800000E+00
  1.1800000E+00
  1.1800000E+00
  1.1800000E+00
  1.1800000E+00
  1.1800000E+00
  1.1800000E+00
  1.1800000E+00
  1.1800000E+00
  1.1800000E+00
  1.1800000E+00
  1.1800000E+00
  1.1800000E+00
  1.1800000E+00
  1.1800000E+00
  1.1800000E+00
  1.1800000E+00
  1.1800000E+00
  1.1800000E+00
  1.1799736E+00
  1.1800000E+00
  1.1800000E+00
  1.1800000E+00
  1.1800000E+00
  1.1800000E+00
  1.1800000E+00
  1.1800000E+00
  1.1800000E+00
  1.1800000E+00
  1.1800000E+00
  1.1800000E+00
  1.1800000E+00
  1.1800000E+00
  1.1800000E+00
  1.1800000E+00
  1.1800000E+00
  1.1800000E+00
  1.1800000E+00
  1.1800000E+00
  1.1800000E+00
  1.1800000E+00
  1.1800000E+00
  1.1800000E+00
  1.1800000E+00
  1.1800000E+00
  1.1800000E+00
  1.1800000E+00
  1.1800000E+00
  1.1800000E+00
  1.1800000E+00
  1.1800000E+00
  1.1800000E+00
  1.1800000E+00
  1.1800000E+00
  1.1800000E+00
  1.1800000E+00
  1.1800000E+00
  1.1800000E+00
  1.1799596E+00
  1.1800000E+00
  1.1800000E+00
  1.1800000E+00
  1.1800000E+00
  1.1800000E+00
  1.1800000E+00
  1.1797430E+00
  1.1800000E+00
  1.1800000E+00
  1.1800000E+00
  1.1800000E+00
  1.1800000E+00
  1.1800000E+00
  1.1800000E+00
  1.1800000E+00
  1.1800000E+00
  1.1800000E+00
  1.1800000E+00
  1.1800000E+00
  1.1800000E+00
  1.1800000E+00
  1.1800000E+00
  1.1800000E+00
  1.1800000E+00
  1.1800000E+00
  1.1800000E+00
  1.1800000E+00
  1.1798927E+00
  1.1800000E+00
  1.1800000E+00
  1.1800000E+00
  1.1800000E+00
  1.1800000E+00
  1.1795832E+00
  1.1800000E+00
  1.1800000E+00
  1.1800000E+00
  1.1800000E+00
  1.1800000E+00
  1.1800000E+00
  1.1800000E+00
  1.1800000E+00
  1.1800000E+00
  1.1800000E+00
  1.1800000E+00
  1.1800000E+00
  1.1800000E+00
  1.1800000E+00
  1.1800000E+00
  1.1800000E+00
  1.1800000E+00
  1.1800000E+00
  1.1800000E+00
  1.1800000E+00
  1.1800000E+00
  1.1800000E+00
  1.1800000E+00
  1.1800000E+00
  1.1800000E+00
  1.1800000E+00
  1.1800000E+00
  1.1800000E+00
  1.1797717E+00
  1.1800000E+00
  1.1800000E+00
  1.1800000E+00
  1.1800000E+00
  1.1793256E+00
  1.1800000E+00
  1.1800000E+00
  1.1800000E+00
  1.1800000E+00
  1.1800000E+00
  1.1800000E+00
  1.1800000E+00
  1.1800000E+00
  1.1800000E+00
  1.1800000E+00
  1.1800000E+00
  1.1800000E+00
  1.1800000E+00
  1.1800000E+00
  1.1800000E+00
  1.1800000E+00
  1.1800000E+00
  1.1800000E+00
  1.1800000E+00
  1.1800000E+00
  1.1800000E+00
  1.1794001E+00
  1.1800000E+00
  1.1800000E+00
  1.1800000E+00
  1.1799707E+00
  1.1800000E+00
  1.1800000E+00
  1.1800000E+00
  1.1800000E+00
  1.1800000E+00
  1.1800000E+00
  1.1800000E+00
  1.1800000E+00
  1.1800000E+00
  1.1800000E+00
  1.1800000E+00
  1.1800000E+00
  1.1800000E+00
  1.1800000E+00
  1.1800000E+00
  1.1800000E+00
  1.1800000E+00
  1.1800000E+00
  1.1800000E+00
  1.1800000E+00
  1.1800000E+00
  1.1800000E+00
  1.1800000E+00
  1.1796219E+00
  1.1800000E+00
  1.1800000E+00
  1.1798706E+00
  1.1800000E+00
  1.1800000E+00
  1.1800000E+00
  1.1800000E+00
  1.1800000E+00
  1.1800000E+00
  1.1800000E+00
  1.1800000E+00
  1.1800000E+00
  1.1800000E+00
  1.1800000E+00
  1.1800000E+00
  1.1800000E+00
  1.1800000E+00
  1.1800000E+00
  1.1800000E+00
  1.1800000E+00
  1.1791858E+00
  1.1800000E+00
  1.1800000E+00
  1.1800000E+00
  1.1800000E+00
  1.1800000E+00
  1.1800000E+00
  1.1800000E+00
  1.1800000E+00
  1.1788436E+00
  1.1792464E+00
  1.1800000E+00
  1.1800000E+00
  1.1800000E+00
  1.1800000E+00
  1.1800000E+00
  1.1800000E+00
  1.1800000E+00
  1.1800000E+00
  1.1800000E+00
  1.1800000E+00
  1.1800000E+00
  1.1800000E+00
  1.1800000E+00
  1.1800000E+00
  1.1800000E+00
  1.1800000E+00
  1.1800000E+00
  1.1800000E+00
  1.1800000E+00
  1.1800000E+00
  1.1800000E+00
  1.1793555E+00
  1.1800000E+00
  1.1800000E+00
  1.1800000E+00
  1.1800000E+00
  1.1800000E+00
  1.1800000E+00
  1.1800000E+00
  1.1800000E+00
  1.1800000E+00
  1.1800000E+00
  1.1800000E+00
  1.1800000E+00
  1.1798231E+00
  1.1800000E+00
  1.1800000E+00
  1.1800000E+00
  1.1800000E+00
  1.1800000E+00
  1.1800000E+00
  1.1800000E+00
  1.1800000E+00
  1.1800000E+00
  1.1800000E+00
  1.1800000E+00
  1.1800000E+00
  1.1800000E+00
  1.1800000E+00
  1.1800000E+00
  1.1800000E+00
  1.1800000E+00
  1.1800000E+00
  1.1800000E+00
  1.1800000E+00
  1.1799646E+00
  1.1800000E+00
  1.1800000E+00
  1.1800000E+00
  1.1800000E+00
  1.1800000E+00
  1.1800000E+00
  1.1800000E+00
  1.1800000E+00
  1.1800000E+00
  1.1800000E+00
  1.1800000E+00
  1.1798647E+00
  1.1799989E+00
  1.1800000E+00
  1.1800000E+00
  1.1800000E+00
  1.1800000E+00
  1.1800000E+00
  1.1800000E+00
  1.1800000E+00
  1.1800000E+00
  1.1800000E+00
  1.1800000E+00
  1.1800000E+00
  1.1800000E+00
  1.1800000E+00
  1.1800000E+00
  1.1800000E+00
  1.1800000E+00
  1.1800000E+00
  1.1799163E+00
  1.1799862E+00
  1.1800000E+00
  1.1800000E+00
  1.1800000E+00
  1.1800000E+00
  1.1800000E+00
  1.1800000E+00
  1.1800000E+00
  1.1800000E+00
  1.1800000E+00
  1.1796419E+00
  1.1800000E+00
  1.1800000E+00
  1.1800000E+00
  1.1800000E+00
  1.1800000E+00
  1.1800000E+00
  1.1800000E+00
  1.1795441E+00
  1.1798440E+00
  1.1799813E+00
  1.1800000E+00
  1.1800000E+00
  1.1800000E+00
  1.1800000E+00
  1.1800000E+00
  1.1800000E+00
  1.1800000E+00
  1.1800000E+00
  1.1800000E+00
  1.1799978E+00
  1.1799740E+00
  1.1798805E+00
  1.1799952E+00
  1.1799491E+00
  1.1796555E+00
  1.1791191E+00
  1.1797931E+00
  1.1796239E+00
 -1.8726980E-02
 -1.7520294E-02
 -2.0036065E-02
 -2.1841295E-02
 -2.2462598E-02
 -2.2336077E-02
 -2.1772899E-02
 -2.1158868E-02
 -2.0490506E-02
 -1.9765966E-02
 -1.9320516E-02
 -1.9573791E-02
 -2.0764663E-02
 -2.2555432E-02
 -2.4587059E-02
 -2.6948336E-02
 -2.4118831E-02
 -2.6121344E-02
 -2.5575681E-02
 -2.3970231E-02
 -2.2553104E-02
 -2.1238604E-02
 -1.9693920E-02
 -1.8658354E-02
  9.8566679E-01
  9.7620764E-01
  9.6705985E-01
  9.5727834E-01
  9.4731588E-01
  9.3858428E-01
  9.3124134E-01
  9.2333259E-01
  9.1439958E-01
  9.0491695E-01
  8.9513213E-01
  8.8515409E-01
  8.7498800E-01
  8.6448252E-01
  8.5274893E-01
  8.4113973E-01
  8.3033705E-01
  8.1953374E-01
  8.0849814E-01
  7.9774781E-01
  7.8743966E-01
  7.7662983E-01
  7.6707118E-01
  7.5920840E-01
  7.5018613E-01
  7.4060191E-01
  7.3072573E-01
  7.2065679E-01
  7.1041763E-01
  6.9997687E-01
  6.8924269E-01
  6.7805088E-01
  6.6656312E-01
  6.5509097E-01
  6.4382733E-01
  6.3258489E-01
  6.2058857E-01
  6.0833238E-01