 VARIABLES = "X" "Y" "Z" "CURVATURE RADIUS"
 ZONE T="pass_32"
N=33151 E=66298
 ZONETYPE=FETriangle
 DATAPACKING=BLOCK
 VARLOCATION = ([1-4]=NODAL)
 
 -7.9037705E-02
 -7.8581125E-02
 -7.8892427E-02
 -7.8939810E-02
 -7.8873227E-02
 -7.8721419E-02
 -7.8472612E-02
 -7.8188041E-02
 -7.8081610E-02
 -7.8120307E-02
 -7.8325947E-02
 -7.8636759E-02
 -7.8954074E-02
 -7.8961219E-02
 -7.9369146E-02
 -7.9173535E-02
 -7.8822726E-02
 -7.8328214E-02
 -7.7683155E-02
 -7.6857712E-02
 -7.7240056E-02
 -7.8377473E-02
 -7.8389015E-02
 -7.8659851E-02
 -7.8897568E-02
 -7.9008399E-02
 -7.9531580E-02
 -7.8934012E-02
 -7.8877050E-02
 -7.8794083E-02
 -7.8760127E-02
 -7.8669860E-02
 -7.8445152E-02
 -7.8081338E-02
 -7.8031537E-02
 -7.8350916E-02
 -7.8556876E-02
 -7.8631596E-02
 -7.8606182E-02
 -7.8873138E-02
 -7.9128705E-02
 -7.9313893E-02
 -7.8506813E-02
 -7.8841603E-02
 -7.7958722E-02
 -7.8179836E-02
 -7.6919533E-02
 -7.7380474E-02
 -7.8174849E-02
 -7.7459664E-02
 -7.8123103E-02
 -7.8651973E-02
 -7.9163517E-02
 -7.8878243E-02
 -7.8368903E-02
 -7.8624231E-02
 -7.8619146E-02
 -7.8488609E-02
 -7.8140760E-02
 -7.7795951E-02
 -7.7631834E-02
 -7.7335916E-02
 -7.8492172E-02
 -7.8281231E-02
 -7.8137138E-02
 -8.0000000E-02
 -8.0000000E-02
 -7.9892458E-02
 -8.0000000E-02
 -7.9866160E-02
 -7.9997125E-02
 -7.9979270E-02
 -7.9991993E-02
 -7.9990835E-02
 -8.0000000E-02
 -7.9899298E-02
 -7.9789561E-02
 -7.9663772E-02
 -7.9939818E-02
 -7.9732369E-02
 -7.9370673E-02
 -8.0000000E-02
 -7.9978008E-02
 -8.0000000E-02
 -7.9963788E-02
 -8.0000000E-02
 -8.0000000E-02
 -8.0000000E-02
 -7.9861818E-02
 -8.0000000E-02
 -8.0000000E-02
 -8.0000000E-02
 -8.0000000E-02
 -8.0000000E-02
 -8.0000000E-02
 -8.0000000E-02
 -7.9997632E-02
 -8.0000000E-02
 -8.0000000E-02
 -8.0000000E-02
 -8.0000000E-02
 -7.9887011E-02
 -8.0000000E-02
 -8.0000000E-02
 -8.0000000E-02
 -8.0000000E-02
 -7.9864819E-02
 -7.9933234E-02
 -8.0000000E-02
 -8.0000000E-02
 -8.0000000E-02
 -8.0000000E-02
 -7.9927516E-02
 -8.0000000E-02
 -8.0000000E-02
 -8.0000000E-02
 -8.0000000E-02
 -8.0000000E-02
 -8.0000000E-02
 -8.0000000E-02
 -8.0000000E-02
 -8.0000000E-02
 -7.9948802E-02
 -8.0000000E-02
 -8.0000000E-02
 -8.0000000E-02
 -8.0000000E-02
 -8.0000000E-02
 -7.9953240E-02
 -8.0000000E-02
 -8.0000000E-02
 -8.0000000E-02
 -8.0000000E-02
 -8.0000000E-02
 -8.0000000E-02
 -8.0000000E-02
 -8.0000000E-02
 -8.0000000E-02
 -7.9945863E-02
 -8.0000000E-02
 -8.0000000E-02
 -8.0000000E-02
 -8.0000000E-02
 -8.0000000E-02
 -8.0000000E-02
 -8.0000000E-02
 -8.0000000E-02
 -7.9943788E-02
 -8.0000000E-02
 -8.0000000E-02
 -8.0000000E-02
 -8.0000000E-02
 -8.0000000E-02
 -8.0000000E-02
 -8.0000000E-02
 -8.0000000E-02
 -8.0000000E-02
 -8.0000000E-02
 -7.9963178E-02
 -8.0000000E-02
 -8.0000000E-02
 -8.0000000E-02
 -8.0000000E-02
 -8.0000000E-02
 -8.0000000E-02
 -8.0000000E-02
 -7.9984165E-02
 -8.0000000E-02
 -8.0000000E-02
 -8.0000000E-02
 -8.0000000E-02
 -8.0000000E-02
 -8.0000000E-02
 -8.0000000E-02
 -8.0000000E-02
 -8.0000000E-02
 -8.0000000E-02
 -8.0000000E-02
 -8.0000000E-02
 -8.0000000E-02
 -7.9992400E-02
 -8.0000000E-02
 -8.0000000E-02
 -8.0000000E-02
 -7.9959133E-02
 -8.0000000E-02
 -8.0000000E-02
 -8.0000000E-02
 -8.0000000E-02
 -8.0000000E-02
 -8.0000000E-02
 -8.0000000E-02
 -8.0000000E-02
 -8.0000000E-02
 -8.0000000E-02
 -8.0000000E-02
 -8.0000000E-02
 -8.0000000E-02
 -8.0000000E-02
 -7.9988241E-02
 -8.0000000E-02
 -8.0000000E-02
 -8.0000000E-02
 -8.0000000E-02
 -8.0000000E-02
 -8.0000000E-02
 -8.0000000E-02
 -8.0000000E-02
 -8.0000000E-02
 -8.0000000E-02
 -8.0000000E-02
 -8.0000000E-02
 -8.0000000E-02
 -8.0000000E-02
 -8.0000000E-02
 -8.0000000E-02
 -8.0000000E-02
 -8.0000000E-02
 -8.0000000E-02
 -8.0000000E-02
 -8.0000000E-02
 -8.0000000E-02
 -8.0000000E-02
 -8.0000000E-02
 -8.0000000E-02
 -8.0000000E-02
 -8.0000000E-02
 -8.0000000E-02
 -8.0000000E-02
 -7.9999346E-02
 -8.0000000E-02
 -8.0000000E-02
 -8.0000000E-02
 -8.0000000E-02
 -8.0000000E-02
 -8.0000000E-02
 -8.0000000E-02
 -8.0000000E-02
 -8.0000000E-02
 -8.0000000E-02
 -8.0000000E-02
 -8.0000000E-02
 -7.9928816E-02
 -8.0000000E-02
 -8.0000000E-02
 -8.0000000E-02
 -8.0000000E-02
 -8.0000000E-02
 -8.0000000E-02
 -7.9646699E-02
 -8.0000000E-02
 -8.0000000E-02
 -8.0000000E-02
 -8.0000000E-02
 -8.0000000E-02
 -8.0000000E-02
 -8.0000000E-02
 -8.0000000E-02
 -8.0000000E-02
 -8.0000000E-02
 -8.0000000E-02
 -7.9999148E-02
 -7.8965495E-02
 -8.0000000E-02
 -8.0000000E-02
 -8.0000000E-02
 -8.0000000E-02
 -8.0000000E-02
 -8.0000000E-02
 -7.9594206E-02
 -8.0000000E-02
 -7.9591526E-02
 -8.0000000E-02
 -8.0000000E-02
 -8.0000000E-02
 -8.0000000E-02
 -8.0000000E-02
 -8.0000000E-02
 -8.0000000E-02
 -8.0000000E-02
 -8.0000000E-02
 -8.0000000E-02
 -8.0000000E-02
 -8.0000000E-02
 -7.9880513E-02
 -7.9878414E-02
 -8.0000000E-02
 -8.0000000E-02
 -8.0000000E-02
 -8.0000000E-02
 -8.0000000E-02
 -7.9968054E-02
 -8.0000000E-02
 -8.0000000E-02
 -8.0000000E-02
 -8.0000000E-02
 -8.0000000E-02
 -8.0000000E-02
 -8.0000000E-02
 -8.0000000E-02
 -8.0000000E-02
 -8.0000000E-02
 -8.0000000E-02
 -8.0000000E-02
 -8.0000000E-02
 -8.0000000E-02
 -8.0000000E-02
 -8.0000000E-02
 -8.0000000E-02
 -7.9995922E-02
 -8.0000000E-02
 -8.0000000E-02
 -8.0000000E-02
 -8.0000000E-02
 -7.9736139E-02
 -8.0000000E-02
 -8.0000000E-02
 -8.0000000E-02
 -8.0000000E-02
 -8.0000000E-02
 -8.0000000E-02
 -8.0000000E-02
 -8.0000000E-02
 -8.0000000E-02
 -8.0000000E-02
 -8.0000000E-02
 -7.9979013E-02
 -7.9999490E-02
 -8.0000000E-02
 -8.0000000E-02
 -8.0000000E-02
 -8.0000000E-02
 -8.0000000E-02
 -8.0000000E-02
 -8.0000000E-02
 -8.0000000E-02
 -8.0000000E-02
 -8.0000000E-02
 -7.9976919E-02
 -8.0000000E-02
 -8.0000000E-02
 -8.0000000E-02
 -8.0000000E-02
 -8.0000000E-02
 -8.0000000E-02
 -8.0000000E-02
 -8.0000000E-02
 -8.0000000E-02
 -8.0000000E-02
 -8.0000000E-02
 -8.0000000E-02
 -8.0000000E-02
 -7.9997517E-02
 -8.0000000E-02
 -8.0000000E-02
 -8.0000000E-02
 -8.0000000E-02
 -8.0000000E-02
 -8.0000000E-02
 -8.0000000E-02
 -7.9829830E-02
 -8.0000000E-02
 -8.0000000E-02
 -8.0000000E-02
 -8.0000000E-02
 -8.0000000E-02
 -8.0000000E-02
 -8.0000000E-02
 -8.0000000E-02
 -8.0000000E-02
 -8.0000000E-02
 -8.0000000E-02
 -8.0000000E-02
 -7.9999754E-02
 -8.0000000E-02
 -8.0000000E-02
 -8.0000000E-02
 -8.0000000E-02
 -8.0000000E-02
 -7.9992985E-02
 -8.0000000E-02
 -8.0000000E-02
 -8.0000000E-02
 -8.0000000E-02
 -8.0000000E-02
 -8.0000000E-02
 -8.0000000E-02
 -8.0000000E-02
 -8.0000000E-02
 -8.0000000E-02
 -8.0000000E-02
 -7.9966637E-02
 -8.0000000E-02
 -8.0000000E-02
 -8.0000000E-02
 -7.9909317E-02
  1.1794303E+00
  1.1796571E+00
  1.1796081E+00
  1.1794840E+00
  1.1793064E+00
  1.1791396E+00
  1.1789485E+00
  1.1784626E+00
  1.1790279E+00
  1.1784768E+00
  1.1777678E+00
  1.1785283E+00
  1.1780964E+00
  1.1774731E+00
  1.1783203E+00
  1.1780514E+00
  1.1774543E+00
  1.1780575E+00
  1.1772216E+00
  1.1777701E+00
  1.1770334E+00
  1.1784839E+00
  1.1776367E+00
  1.1780178E+00
  1.1784717E+00
  1.1790657E+00
  1.1795304E+00
  1.1787237E+00
  1.1791155E+00
  1.1785823E+00
  1.1788467E+00
  1.1788394E+00
  1.1787173E+00
  1.1783870E+00
  1.1776757E+00
  1.1778764E+00
  1.1779072E+00
  1.1780125E+00
  1.1782631E+00
  1.1784725E+00
  1.1785524E+00
  1.1784343E+00
  1.1782166E+00
  1.1778675E+00
  1.1773447E+00
  1.1765448E+00
  1.1768969E+00
  1.1776921E+00
  1.1779171E+00
  1.1789794E+00
  1.1787371E+00
  1.1791885E+00
  1.1791106E+00
  1.1795582E+00
  1.1794388E+00
  1.1792843E+00
  1.1791582E+00
  1.1790771E+00
  1.1789202E+00
  1.1787464E+00
  1.1784196E+00
  1.1781142E+00
  1.1779813E+00
  1.1777776E+00
  1.1776863E+00
  1.1774072E+00
  1.1770835E+00
  1.1780048E+00
  1.1777423E+00
  1.1775554E+00
  1.1769780E+00
  1.1761854E+00
  1.1760295E+00
  1.1770560E+00
  1.1774707E+00
  1.1786222E+00
  1.1781792E+00
  1.1781842E+00
  1.1796326E+00
  1.1795027E+00
  1.1795230E+00
  1.1795185E+00
  1.1794105E+00
  1.1793394E+00
  1.1792981E+00
  1.1791731E+00
  1.1788891E+00
  1.1786647E+00
  1.1785750E+00
  1.1785321E+00
  1.1784889E+00
  1.1783967E+00
  1.1781767E+00
  1.1775884E+00
  1.1780437E+00
  1.1781009E+00
  1.1779165E+00
  1.1775074E+00
  1.1767794E+00
  1.1779171E+00
  1.1788590E+00
  1.1792150E+00
  1.1791471E+00
  1.1788983E+00
  1.1795724E+00
  1.1790330E+00
  1.1785107E+00
  1.1787063E+00
  1.1786638E+00
  1.1785356E+00
  1.1788942E+00
  1.1779899E+00
  1.1778028E+00
  1.1772654E+00
  1.1775783E+00
  1.1776911E+00
  1.1777345E+00
  1.1778845E+00
  1.1778391E+00
  1.1778808E+00
  1.1777156E+00
  1.1775770E+00
  1.1774719E+00
  1.1772378E+00
  1.1767788E+00
  1.1778340E+00
  1.1786726E+00
  1.1790796E+00
  1.1791296E+00
  1.1788844E+00
  1.1800000E+00
  1.1800000E+00
  1.1800000E+00
  1.1800000E+00
  1.1800000E+00
  1.1800000E+00
  1.1800000E+00
  1.1800000E+00
  1.1800000E+00
  1.1800000E+00
  1.1800000E+00
  1.1800000E+00
  1.1800000E+00
  1.1800000E+00
  1.1800000E+00
  1.1800000E+00
  1.1800000E+00
  1.1800000E+00
  1.1800000E+00
  1.1800000E+00
  1.1800000E+00
  1.1800000E+00
  1.1800000E+00
  1.1800000E+00
  1.1800000E+00
  1.1800000E+00
  1.1800000E+00
  1.1800000E+00
  1.1800000E+00
  1.1800000E+00
  1.1800000E+00
  1.1800000E+00
  1.1800000E+00
  1.1800000E+00
  1.1800000E+00
  1.1800000E+00
  1.1800000E+00
  1.1800000E+00
  1.1799199E+00
  1.1795101E+00
  1.1795877E+00
  1.1799712E+00
  1.1798944E+00
  1.1799910E+00
  1.1800000E+00
  1.1800000E+00
  1.1800000E+00
  1.1800000E+00
  1.1800000E+00
  1.1800000E+00
  1.1800000E+00
  1.1800000E+00
  1.1800000E+00
  1.1798521E+00
  1.1800000E+00
  1.1800000E+00
  1.1800000E+00
  1.1800000E+00
  1.1800000E+00
  1.1800000E+00
  1.1800000E+00
  1.1800000E+00
  1.1800000E+00
  1.1800000E+00
  1.1800000E+00
  1.1800000E+00
  1.1800000E+00
  1.1800000E+00
  1.1799277E+00
  1.1800000E+00
  1.1800000E+00
  1.1800000E+00
  1.1800000E+00
  1.1800000E+00
  1.1800000E+00
  1.1800000E+00
  1.1800000E+00
  1.1800000E+00
  1.1800000E+00
  1.1800000E+00
  1.1800000E+00
  1.1800000E+00
  1.1800000E+00
  1.1800000E+00
  1.1800000E+00
  1.1800000E+00
  1.1800000E+00
  1.1800000E+00
  1.1799094E+00
  1.1800000E+00
  1.1800000E+00
  1.1800000E+00
  1.1800000E+00
  1.1800000E+00
  1.1800000E+00
  1.1800000E+00
  1.1800000E+00
  1.1800000E+00
  1.1800000E+00
  1.1800000E+00
  1.1800000E+00
  1.1800000E+00
  1.1800000E+00
  1.1800000E+00
  1.1800000E+00
  1.1800000E+00
  1.1794381E+00
  1.1800000E+00
  1.1800000E+00
  1.1800000E+00
  1.1800000E+00
  1.1800000E+00
  1.1800000E+00
  1.1800000E+00
  1.1800000E+00
  1.1800000E+00
  1.1800000E+00
  1.1800000E+00
  1.1800000E+00
  1.1800000E+00
  1.1800000E+00
  1.1800000E+00
  1.1800000E+00
  1.1800000E+00
  1.1800000E+00
  1.1800000E+00
  1.1792554E+00
  1.1800000E+00
  1.1800000E+00
  1.1800000E+00
  1.1800000E+00
  1.1800000E+00
  1.1795195E+00
  1.1800000E+00
  1.1800000E+00
  1.1800000E+00
  1.1800000E+00
  1.1800000E+00
  1.1800000E+00
  1.1800000E+00
  1.1800000E+00
  1.1800000E+00
  1.1800000E+00
  1.1800000E+00
  1.1793273E+00
  1.1799978E+00
  1.1800000E+00
  1.1800000E+00
  1.1800000E+00
  1.1800000E+00
  1.1800000E+00
  1.1800000E+00
  1.1800000E+00
  1.1800000E+00
  1.1798521E+00
  1.1800000E+00
  1.1800000E+00
  1.1800000E+00
  1.1800000E+00
  1.1800000E+00
  1.1800000E+00
  1.1800000E+00
  1.1800000E+00
  1.1800000E+00
  1.1800000E+00
  1.1800000E+00
  1.1800000E+00
  1.1800000E+00
  1.1800000E+00
  1.1794654E+00
  1.1800000E+00
  1.1800000E+00
  1.1800000E+00
  1.1800000E+00
  1.1800000E+00
  1.1800000E+00
  1.1800000E+00
  1.1797717E+00
  1.1800000E+00
  1.1800000E+00
  1.1800000E+00
  1.1800000E+00
  1.1800000E+00
  1.1800000E+00
  1.1800000E+00
  1.1800000E+00
  1.1800000E+00
  1.1800000E+00
  1.1800000E+00
  1.1800000E+00
  1.1800000E+00
  1.1800000E+00
  1.1800000E+00
  1.1800000E+00
  1.1800000E+00
  1.1800000E+00
  1.1800000E+00
  1.1800000E+00
  1.1795869E+00
  1.1800000E+00
  1.1800000E+00
  1.1800000E+00
  1.1800000E+00
  1.1800000E+00
  1.1800000E+00
  1.1800000E+00
  1.1800000E+00
  1.1800000E+00
  1.1800000E+00
  1.1792838E+00
  1.1799995E+00
  1.1800000E+00
  1.1800000E+00
  1.1800000E+00
  1.1800000E+00
  1.1800000E+00
  1.1800000E+00
  1.1800000E+00
  1.1800000E+00
  1.1800000E+00
  1.1800000E+00
  1.1800000E+00
  1.1800000E+00
  1.1800000E+00
  1.1800000E+00
  1.1800000E+00
  1.1796138E+00
  1.1800000E+00
  1.1800000E+00
  1.1800000E+00
  1.1800000E+00
  1.1800000E+00
  1.1800000E+00
  1.1800000E+00
  1.1800000E+00
  1.1800000E+00
  1.1798440E+00
  1.1800000E+00
  1.1800000E+00
  1.1800000E+00
  1.1800000E+00
  1.1800000E+00
  1.1800000E+00
  1.1800000E+00
  1.1800000E+00
  1.1792211E+00
  1.1800000E+00
  1.1800000E+00
  1.1800000E+00
  1.1800000E+00
  1.1800000E+00
  1.1800000E+00
  1.1800000E+00
  1.1800000E+00
  1.1800000E+00
  1.1800000E+00
  1.1800000E+00
  1.1800000E+00
  1.1800000E+00
  1.1800000E+00
  1.1800000E+00
  1.1800000E+00
  1.1800000E+00
  1.1795696E+00
  1.1800000E+00
  1.1800000E+00
  1.1800000E+00
  1.1800000E+00
  1.1800000E+00
  1.1800000E+00
  1.1800000E+00
  1.1800000E+00
  1.1800000E+00
  1.1800000E+00
  1.1792698E+00
  1.1800000E+00
  1.1800000E+00
  1.1800000E+00
  1.1800000E+00
  1.1800000E+00
  1.1800000E+00
  1.1800000E+00
  1.1800000E+00
  1.1800000E+00
  1.1800000E+00
  1.1800000E+00
  1.1800000E+00
  1.1800000E+00
  1.1800000E+00
  1.1800000E+00
  1.1800000E+00
  1.1800000E+00
  1.1800000E+00
  1.1800000E+00
  1.1800000E+00
  1.1800000E+00
  1.1800000E+00
  1.1800000E+00
  1.1800000E+00
  1.1797868E+00
  1.1800000E+00
  1.1800000E+00
  1.1800000E+00
  1.1800000E+00
  1.1800000E+00
  1.1800000E+00
  1.1800000E+00
  1.1800000E+00
  1.1800000E+00
  1.1800000E+00
  1.1800000E+00
  1.1800000E+00
  1.1799952E+00
  1.1800000E+00
  1.1800000E+00
  1.1800000E+00
  1.1800000E+00
  1.1800000E+00
  1.1800000E+00
  1.1800000E+00
  1.1800000E+00
  1.1800000E+00
  1.1800000E+00
  1.1800000E+00
  1.1800000E+00
  1.1800000E+00
  1.1800000E+00
  1.1800000E+00
  1.1800000E+00
  1.1800000E+00
  1.1799456E+00
  1.1800000E+00
  1.1800000E+00
  1.1800000E+00
  1.1800000E+00
  1.1800000E+00
  1.1800000E+00
  1.1800000E+00
  1.1800000E+00
  1.1800000E+00
  1.1800000E+00
  1.1800000E+00
  1.1800000E+00
  1.1800000E+00
  1.1800000E+00
  1.1800000E+00
  1.1800000E+00
  1.1799961E+00
  1.1800000E+00
  1.1800000E+00
  1.1800000E+00
  1.1800000E+00
  1.1800000E+00
  1.1800000E+00
  1.1800000E+00
  1.1800000E+00
  1.1800000E+00
  1.1800000E+00
  1.1800000E+00
  1.1800000E+00
  1.1800000E+00
  1.1800000E+00
  1.1800000E+00
  1.1800000E+00
  1.1800000E+00
  1.1800000E+00
  1.1800000E+00
  1.1800000E+00
  1.1800000E+00
  1.1800000E+00
  1.1800000E+00
  1.1800000E+00
  1.1800000E+00
  1.1800000E+00
  1.1799972E+00
  1.1800000E+00
  1.1800000E+00
  1.1800000E+00
  1.1800000E+00
  1.1800000E+00
  1.1800000E+00
  1.1800000E+00
  1.1800000E+00
  1.1800000E+00
  1.1800000E+00
  1.1800000E+00
  1.1800000E+00
  1.1800000E+00
  1.1800000E+00
  1.1800000E+00
  1.1800000E+00
  1.1800000E+00
  1.1800000E+00
  1.1800000E+00
  1.1800000E+00
  1.1800000E+00
  1.1800000E+00
  1.1800000E+00
  1.1800000E+00
  1.1800000E+00
  1.1800000E+00
  1.1795101E+00
  1.1799514E+00
  1.1800000E+00
  1.1800000E+00
  1.1800000E+00
  1.1800000E+00
  1.1800000E+00
  1.1800000E+00
  1.1800000E+00
  1.1800000E+00
  1.1800000E+00
  1.1800000E+00
  1.1800000E+00
  1.1800000E+00
  1.1800000E+00
  1.1800000E+00
  1.1800000E+00
  1.1800000E+00
  1.1800000E+00
  1.1800000E+00
  1.1800000E+00
  1.1800000E+00
  1.1800000E+00
  1.1800000E+00
  1.1800000E+00
  1.1800000E+00
  1.1800000E+00
  1.1800000E+00
  1.1800000E+00
  1.1800000E+00
  1.1800000E+00
  1.1800000E+00
  1.1800000E+00
  1.1800000E+00
  1.1800000E+00
  1.1800000E+00
  1.1800000E+00
  1.1800000E+00
  1.1800000E+00
  1.1800000E+00
  1.1800000E+00
  1.1800000E+00
  1.1800000E+00
  1.1800000E+00
  1.1800000E+00
  1.1800000E+00
  1.1800000E+00
  1.1800000E+00
  1.1800000E+00
  1.1800000E+00
  1.1800000E+00
  1.1800000E+00
  1.1800000E+00
  1.1800000E+00
  1.1800000E+00
  1.1800000E+00
  1.1800000E+00
  1.1799992E+00
  1.1800000E+00
  1.1800000E+00
  1.1800000E+00
  1.1800000E+00
  1.1800000E+00
  1.1800000E+00
  1.1800000E+00
  1.1800000E+00
  1.1800000E+00
  1.1800000E+00
  1.1800000E+00
  1.1800000E+00
  1.1800000E+00
  1.1800000E+00
  1.1800000E+00
  1.1800000E+00
  1.1800000E+00
  1.1800000E+00
  1.1800000E+00
  1.1800000E+00
  1.1800000E+00
  1.1800000E+00
  1.1800000E+00
  1.1800000E+00
  1.1800000E+00
  1.1800000E+00
  1.1800000E+00
  1.1800000E+00
  1.1800000E+00
  1.1800000E+00
  1.1800000E+00
  1.1800000E+00
  1.1800000E+00
  1.1800000E+00
  1.1800000E+00
  1.1800000E+00
  1.1800000E+00
  1.1800000E+00
  1.1800000E+00
  1.1800000E+00
  1.1800000E+00
  1.1800000E+00
  1.1800000E+00
  1.1800000E+00
  1.1800000E+00
  1.1800000E+00
  1.1800000E+00
  1.1800000E+00
  1.1800000E+00
  1.1800000E+00
  1.1800000E+00
  1.1800000E+00
  1.1800000E+00
  1.1800000E+00
  1.1800000E+00
  1.1800000E+00
  1.1800000E+00
  1.1800000E+00
  1.1800000E+00
  1.1800000E+00
  1.1800000E+00
  1.1800000E+00
  1.1800000E+00
  1.1800000E+00
  1.1800000E+00
  1.1800000E+00
  1.1800000E+00
  1.1800000E+00
  1.1800000E+00
  1.1800000E+00
  1.1800000E+00
  1.1800000E+00
  1.1800000E+00
  1.1800000E+00
  1.1800000E+00
  1.1800000E+00
  1.1800000E+00
  1.1800000E+00
  1.1800000E+00
  1.1800000E+00
  1.1800000E+00
  1.1800000E+00
  1.1800000E+00
  1.1800000E+00
  1.1800000E+00
  1.1800000E+00
  1.1800000E+00
  1.1800000E+00
  1.1800000E+00
  1.1800000E+00
  1.1800000E+00
  1.1800000E+00
  1.1800000E+00
  1.1799615E+00
  1.1800000E+00
  1.1800000E+00
  1.1800000E+00
  1.1800000E+00
  1.1800000E+00
  1.1800000E+00
  1.1800000E+00
  1.1800000E+00
  1.1800000E+00
  1.1800000E+00
  1.1793242E+00
  1.1798671E+00
  1.1800000E+00
  1.1800000E+00
  1.1800000E+00
  1.1800000E+00
  1.1800000E+00
  1.1800000E+00
  1.1800000E+00
  1.1800000E+00
  1.1800000E+00
  1.1800000E+00
  1.1800000E+00
  1.1800000E+00
  1.1800000E+00
  1.1800000E+00
  1.1800000E+00
  1.1800000E+00
  1.1800000E+00
  1.1800000E+00
  1.1800000E+00
  1.1799801E+00
  1.1800000E+00
  1.1800000E+00
  1.1800000E+00
  1.1800000E+00
  1.1800000E+00
  1.1800000E+00
  1.1800000E+00
  1.1800000E+00
  1.1800000E+00
  1.1800000E+00
  1.1800000E+00
  1.1800000E+00
  1.1800000E+00
  1.1800000E+00
  1.1800000E+00
  1.1799890E+00
  1.1800000E+00
  1.1800000E+00
  1.1800000E+00
  1.1800000E+00
  1.1800000E+00
  1.1800000E+00
  1.1800000E+00
  1.1800000E+00
  1.1800000E+00
  1.1800000E+00
  1.1800000E+00
  1.1800000E+00
  1.1800000E+00
  1.1800000E+00
  1.1800000E+00
  1.1800000E+00
  1.1800000E+00
  1.1800000E+00
  1.1800000E+00
  1.1800000E+00
  1.1800000E+00
  1.1800000E+00
  1.1800000E+00
  1.1800000E+00
  1.1800000E+00
  1.1800000E+00
  1.1800000E+00
  1.1799926E+00
  1.1800000E+00
  1.1800000E+00
  1.1800000E+00
  1.1800000E+00
  1.1800000E+00
  1.1800000E+00
  1.1800000E+00
  1.1800000E+00
  1.1800000E+00
  1.1800000E+00
  1.1799924E+00
  1.1800000E+00
  1.1800000E+00
  1.1800000E+00
  1.1800000E+00
  1.1797241E+00
  1.1799549E+00
  1.1800000E+00
  1.1800000E+00
  1.1800000E+00
  1.1800000E+00
  1.1800000E+00
  1.1800000E+00
  1.1800000E+00
  1.1800000E+00
  1.1800000E+00
  1.1800000E+00
  1.1800000E+00
  1.1800000E+00
  1.1800000E+00
  1.1800000E+00
  1.1800000E+00
  1.1800000E+00
  1.1800000E+00
  1.1800000E+00
  1.1800000E+00
  1.1800000E+00
  1.1800000E+00
  1.1800000E+00
  1.1800000E+00
  1.1800000E+00
  1.1800000E+00
  1.1800000E+00
  1.1800000E+00
  1.1800000E+00
  1.1800000E+00
  1.1799822E+00
  1.1800000E+00
  1.1800000E+00
  1.1800000E+00
  1.1800000E+00
  1.1800000E+00
  1.1800000E+00
  1.1800000E+00
  1.1800000E+00
  1.1800000E+00
  1.1800000E+00
  1.1800000E+00
  1.1800000E+00
  1.1799757E+00
  1.1800000E+00
  1.1800000E+00
  1.1800000E+00
  1.1800000E+00
  1.1800000E+00
  1.1800000E+00
  1.1800000E+00
  1.1800000E+00
  1.1800000E+00
  1.1800000E+00
  1.1800000E+00
  1.1800000E+00
  1.1799890E+00
  1.1800000E+00
  1.1800000E+00
  1.1800000E+00
  1.1800000E+00
  1.1800000E+00
  1.1800000E+00
  1.1800000E+00
  1.1800000E+00
  1.1800000E+00
  1.1800000E+00
  1.1800000E+00
  1.1800000E+00
  1.1800000E+00
  1.1800000E+00
  1.1800000E+00
  1.1800000E+00
  1.1799301E+00
  1.1800000E+00
  1.1800000E+00
  1.1800000E+00
  1.1800000E+00
  1.1800000E+00
  1.1800000E+00
  1.1800000E+00
  1.1800000E+00
  1.1800000E+00
  1.1800000E+00
  1.1800000E+00
  1.1800000E+00
  1.1800000E+00
  1.1800000E+00
  1.1800000E+00
  1.1798257E+00
  1.1800000E+00
  1.1800000E+00
  1.1800000E+00
  1.1800000E+00
  1.1799450E+00
  1.1800000E+00
  1.1800000E+00
  1.1800000E+00
  1.1800000E+00
  1.1800000E+00
  1.1800000E+00
  1.1800000E+00
  1.1800000E+00
  1.1800000E+00
  1.1800000E+00
  1.1800000E+00
  1.1800000E+00
  1.1800000E+00
  1.1800000E+00
  1.1800000E+00
  1.1800000E+00
  1.1800000E+00
  1.1800000E+00
  1.1800000E+00
  1.1800000E+00
  1.1800000E+00
  1.1800000E+00
  1.1796530E+00
  1.1800000E+00
  1.1800000E+00
  1.1800000E+00
  1.1800000E+00
  1.1800000E+00
  1.1800000E+00
  1.1800000E+00
  1.1800000E+00
  1.1800000E+00
  1.1800000E+00
  1.1800000E+00
  1.1800000E+00
  1.1800000E+00
  1.1800000E+00
  1.1800000E+00
  1.1800000E+00
  1.1800000E+00
  1.1800000E+00
  1.1800000E+00
  1.1795359E+00
  1.1800000E+00
  1.1800000E+00
  1.1800000E+00
  1.1800000E+00
  1.1800000E+00
  1.1800000E+00
  1.1800000E+00
  1.1800000E+00
  1.1800000E+00
  1.1800000E+00
  1.1800000E+00
  1.1800000E+00
  1.1800000E+00
  1.1800000E+00
  1.1800000E+00
  1.1800000E+00
  1.1800000E+00
  1.1800000E+00
  1.1800000E+00
  1.1800000E+00
  1.1800000E+00
  1.1800000E+00
  1.1800000E+00
  1.1800000E+00
  1.1800000E+00
  1.1800000E+00
  1.1800000E+00
  1.1800000E+00
  1.1800000E+00
  1.1800000E+00
  1.1799959E+00
  1.1800000E+00
  1.1800000E+00
  1.1800000E+00
  1.1800000E+00
  1.1800000E+00
  1.1800000E+00
  1.1800000E+00
  1.1800000E+00
  1.1800000E+00
  1.1800000E+00
  1.1800000E+00
  1.1800000E+00
  1.1800000E+00
  1.1800000E+00
  1.1800000E+00
  1.1800000E+00
  1.1800000E+00
  1.1800000E+00
  1.1800000E+00
  1.1800000E+00
  1.1800000E+00
  1.1800000E+00
  1.1800000E+00
  1.1799996E+00
  1.1800000E+00
  1.1800000E+00
  1.1800000E+00
  1.1800000E+00
  1.1800000E+00
  1.1800000E+00
  1.1800000E+00
  1.1800000E+00
  1.1800000E+00
  1.1800000E+00
  1.1800000E+00
  1.1800000E+00
  1.1800000E+00
  1.1800000E+00
  1.1800000E+00
  1.1800000E+00
  1.1800000E+00
  1.1800000E+00
  1.1800000E+00
  1.1800000E+00
  1.1799494E+00
  1.1800000E+00
  1.1800000E+00
  1.1800000E+00
  1.1800000E+00
  1.1800000E+00
  1.1800000E+00
  1.1800000E+00
  1.1800000E+00
  1.1800000E+00
  1.1800000E+00
  1.1800000E+00
  1.1797668E+00
  1.1800000E+00
  1.1800000E+00
  1.1800000E+00
  1.1800000E+00
  1.1800000E+00
  1.1800000E+00
  1.1800000E+00
  1.1800000E+00
  1.1800000E+00
  1.1800000E+00
  1.1800000E+00
  1.1800000E+00
  1.1800000E+00
  1.1800000E+00
  1.1800000E+00
  1.1800000E+00
  1.1800000E+00
  1.1800000E+00
  1.1800000E+00
  1.1800000E+00
  1.1800000E+00
  1.1800000E+00
  1.1800000E+00
  1.1800000E+00
  1.1800000E+00
  1.1800000E+00
  1.1800000E+00
  1.1800000E+00
  1.1800000E+00
  1.1800000E+00
  1.1800000E+00
  1.1800000E+00
  1.1800000E+00
  1.1800000E+00
  1.1800000E+00
  1.1800000E+00
  1.1800000E+00
  1.1800000E+00
  1.1800000E+00
  1.1800000E+00
  1.1800000E+00
  1.1800000E+00
  1.1800000E+00
  1.1799718E+00
  1.1800000E+00
  1.1800000E+00
  1.1800000E+00
  1.1800000E+00
  1.1800000E+00
  1.1800000E+00
  1.1800000E+00
  1.1800000E+00
  1.1800000E+00
  1.1799731E+00
  1.1800000E+00
  1.1800000E+00
  1.1800000E+00
  1.1800000E+00
  1.1800000E+00
  1.1800000E+00
  1.1800000E+00
  1.1800000E+00
  1.1800000E+00
  1.1800000E+00
  1.1800000E+00
  1.1800000E+00
  1.1800000E+00
  1.1800000E+00
  1.1800000E+00
  1.1800000E+00
  1.1800000E+00
  1.1800000E+00
  1.1800000E+00
  1.1800000E+00
  1.1800000E+00
  1.1800000E+00
  1.1800000E+00
  1.1800000E+00
  1.1800000E+00
  1.1800000E+00
  1.1800000E+00
  1.1800000E+00
  1.1800000E+00
  1.1800000E+00
  1.1800000E+00
  1.1800000E+00
  1.1800000E+00
  1.1800000E+00
  1.1800000E+00
  1.1800000E+00
  1.1800000E+00
  1.1799549E+00
  1.1800000E+00
  1.1800000E+00
  1.1800000E+00
  1.1800000E+00
  1.1800000E+00
  1.1800000E+00
  1.1800000E+00
  1.1800000E+00
  1.1800000E+00
  1.1800000E+00
  1.1800000E+00
  1.1800000E+00
  1.1800000E+00
  1.1800000E+00
  1.1800000E+00
  1.1800000E+00
  1.1800000E+00
  1.1800000E+00
  1.1800000E+00
  1.1800000E+00
  1.1800000E+00
  1.1800000E+00
  1.1800000E+00
  1.1800000E+00
  1.1800000E+00
  1.1800000E+00
  1.1800000E+00
  1.1800000E+00
  1.1800000E+00
  1.1800000E+00
  1.1800000E+00
  1.1800000E+00
  1.1800000E+00
  1.1800000E+00
  1.1800000E+00
  1.1800000E+00
  1.1800000E+00
  1.1800000E+00
  1.1799354E+00
  1.1800000E+00
  1.1800000E+00
  1.1800000E+00
  1.1800000E+00
  1.1800000E+00
  1.1800000E+00
  1.1796865E+00
  1.1800000E+00
  1.1800000E+00
  1.1800000E+00
  1.1800000E+00
  1.1800000E+00
  1.1800000E+00
  1.1800000E+00
  1.1800000E+00
  1.1800000E+00
  1.1800000E+00
  1.1800000E+00
  1.1800000E+00
  1.1800000E+00
  1.1800000E+00
  1.1800000E+00
  1.1800000E+00
  1.1800000E+00
  1.1800000E+00
  1.1800000E+00
  1.1800000E+00
  1.1798548E+00
  1.1800000E+00
  1.1800000E+00
  1.1800000E+00
  1.1800000E+00
  1.1800000E+00
  1.1795157E+00
  1.1800000E+00
  1.1800000E+00
  1.1800000E+00
  1.1800000E+00
  1.1800000E+00
  1.1800000E+00
  1.1800000E+00
  1.1800000E+00
  1.1800000E+00
  1.1800000E+00
  1.1800000E+00
  1.1800000E+00
  1.1800000E+00
  1.1800000E+00
  1.1800000E+00
  1.1800000E+00
  1.1800000E+00
  1.1800000E+00
  1.1800000E+00
  1.1800000E+00
  1.1800000E+00
  1.1800000E+00
  1.1800000E+00
  1.1800000E+00
  1.1800000E+00
  1.1800000E+00
  1.1800000E+00
  1.1800000E+00
  1.1797204E+00
  1.1800000E+00
  1.1800000E+00
  1.1800000E+00
  1.1800000E+00
  1.1792482E+00
  1.1799994E+00
  1.1800000E+00
  1.1800000E+00
  1.1800000E+00
  1.1800000E+00
  1.1800000E+00
  1.1800000E+00
  1.1800000E+00
  1.1800000E+00
  1.1800000E+00
  1.1800000E+00
  1.1800000E+00
  1.1800000E+00
  1.1800000E+00
  1.1800000E+00
  1.1800000E+00
  1.1800000E+00
  1.1800000E+00
  1.1800000E+00
  1.1800000E+00
  1.1800000E+00
  1.1793296E+00
  1.1800000E+00
  1.1800000E+00
  1.1800000E+00
  1.1799508E+00
  1.1800000E+00
  1.1800000E+00
  1.1800000E+00
  1.1800000E+00
  1.1800000E+00
  1.1800000E+00
  1.1800000E+00
  1.1800000E+00
  1.1800000E+00
  1.1800000E+00
  1.1800000E+00
  1.1800000E+00
  1.1800000E+00
  1.1800000E+00
  1.1800000E+00
  1.1800000E+00
  1.1800000E+00
  1.1800000E+00
  1.1800000E+00
  1.1800000E+00
  1.1800000E+00
  1.1800000E+00
  1.1800000E+00
  1.1795607E+00
  1.1800000E+00
  1.1800000E+00
  1.1798314E+00
  1.1800000E+00
  1.1800000E+00
  1.1800000E+00
  1.1800000E+00
  1.1800000E+00
  1.1800000E+00
  1.1800000E+00
  1.1800000E+00
  1.1800000E+00
  1.1800000E+00
  1.1800000E+00
  1.1800000E+00
  1.1800000E+00
  1.1800000E+00
  1.1800000E+00
  1.1800000E+00
  1.1800000E+00
  1.1791100E+00
  1.1799991E+00
  1.1800000E+00
  1.1800000E+00
  1.1800000E+00
  1.1800000E+00
  1.1800000E+00
  1.1800000E+00
  1.1800000E+00
  1.1787637E+00
  1.1791681E+00
  1.1800000E+00
  1.1800000E+00
  1.1800000E+00
  1.1800000E+00
  1.1800000E+00
  1.1800000E+00
  1.1800000E+00
  1.1800000E+00
  1.1800000E+00
  1.1800000E+00
  1.1800000E+00
  1.1800000E+00
  1.1800000E+00
  1.1800000E+00
  1.1800000E+00
  1.1800000E+00
  1.1800000E+00
  1.1800000E+00
  1.1800000E+00
  1.1800000E+00
  1.1800000E+00
  1.1792795E+00
  1.1799980E+00
  1.1800000E+00
  1.1800000E+00
  1.1800000E+00
  1.1800000E+00
  1.1800000E+00
  1.1800000E+00
  1.1800000E+00
  1.1800000E+00
  1.1800000E+00
  1.1800000E+00
  1.1800000E+00
  1.1797734E+00
  1.1800000E+00
  1.1800000E+00
  1.1800000E+00
  1.1800000E+00
  1.1800000E+00
  1.1800000E+00
  1.1800000E+00
  1.1800000E+00
  1.1800000E+00
  1.1800000E+00
  1.1800000E+00
  1.1800000E+00
  1.1800000E+00
  1.1800000E+00
  1.1800000E+00
  1.1800000E+00
  1.1800000E+00
  1.1800000E+00
  1.1800000E+00
  1.1800000E+00
  1.1799408E+00
  1.1800000E+00
  1.1800000E+00
  1.1800000E+00
  1.1800000E+00
  1.1800000E+00
  1.1800000E+00
  1.1800000E+00
  1.1800000E+00
  1.1800000E+00
  1.1800000E+00
  1.1800000E+00
  1.1798253E+00
  1.1799928E+00
  1.1800000E+00
  1.1800000E+00
  1.1800000E+00
  1.1800000E+00
  1.1800000E+00
  1.1800000E+00
  1.1800000E+00
  1.1800000E+00
  1.1800000E+00
  1.1800000E+00
  1.1800000E+00
  1.1800000E+00
  1.1800000E+00
  1.1800000E+00
  1.1800000E+00
  1.1800000E+00
  1.1800000E+00
  1.1798844E+00
  1.1799714E+00
  1.1800000E+00
  1.1800000E+00
  1.1800000E+00
  1.1800000E+00
  1.1800000E+00
  1.1800000E+00
  1.1800000E+00
  1.1800000E+00
  1.1800000E+00
  1.1795825E+00
  1.1800000E+00
  1.1800000E+00
  1.1800000E+00
  1.1800000E+00
  1.1800000E+00
  1.1800000E+00
  1.1800000E+00
  1.1794780E+00
  1.1798029E+00
  1.1799659E+00
  1.1800000E+00
  1.1800000E+00
  1.1800000E+00
  1.1800000E+00
  1.1800000E+00
  1.1800000E+00
  1.1800000E+00
  1.1800000E+00
  1.1800000E+00
  1.1799916E+00
  1.1799577E+00
  1.1798485E+00
  1.1799865E+00
  1.1799248E+00
  1.1796061E+00
  1.1790530E+00
  1.1797474E+00
  1.1795657E+00
 -1.9081191E-02
 -1.7926764E-02
 -2.0370402E-02
 -2.2128492E-02
 -2.2720489E-02
 -2.2592185E-02
 -2.2025257E-02
 -2.1407084E-02
 -2.0738926E-02
 -2.0018615E-02
 -1.9575117E-02
 -1.9825143E-02
 -2.1007028E-02
 -2.2783511E-02
 -2.4795638E-02
 -2.7134454E-02
 -2.4341960E-02
 -2.6324854E-02
 -2.5780043E-02
 -2.4194234E-02
 -2.2812208E-02
 -2.1540649E-02
 -2.0033857E-02
 -1.9051910E-02
  9.8569460E-01
  9.7625251E-01
  9.6711475E-01
  9.5734574E-01
  9.4739648E-01
  9.3867473E-01
  9.3133520E-01
  9.2343170E-01
  9.1450323E-01
  9.0502380E-01
  8.9524035E-01
  8.8526157E-01
  8.7509227E-01
  8.6458106E-01
  8.5283839E-01
  8.4122226E-01
  8.3041390E-01
  8.1960538E-01
  8.0856577E-01
  7.9781202E-01
  7.8751204E-01
  7.7671902E-01
  7.6716995E-01
  7.5930857E-01
  7.5028505E-01
  7.4069684E-01
  7.3081368E-01
  7.2073454E-01
  7.1048194E-01
  7.0002488E-01
  6.8927205E-01
  6.7805985E-01
  6.6655287E-01
  6.5506533E-01
  6.4379247E-01
  6.3254656E-01
  6.2055204E-01
  6.0830687E-01